LAMMPS (2 Aug 2023 - Maintenance - lammps-gui-v1.2)
OMP_NUM_THREADS environment is not set. Defaulting to 1 thread. (src/comm.cpp:98)
  using 1 OpenMP thread(s) per MPI task
Loaded 1 plugins from C:\Users\lasse\AppData\Local\LAMMPS 64-bit 2Aug2023 with GUI\plugins
units lj
boundary p p p
atom_style atomic


# Define the space and put atoms in
dimension 2
region simbox block 0 30 0 30 -0.1 0.1
create_box 1 simbox
Created orthogonal box = (0 0 -0.1) to (30 30 0.1)
  1 by 1 by 1 MPI processor grid
lattice hex 0.65
Lattice spacing in x,y,z = 1.33284 2.3085465 1.33284
create_atoms 1 box
Created 598 atoms
  using lattice units in orthogonal box = (0 0 -0.1) to (30 30 0.1)
  create_atoms CPU = 0.002 seconds

# Define properties of the atoms
mass 1 1.0
velocity all create 0.6 87287
pair_style lj/cut 2.5
pair_coeff 1 1 1.0 1.0 2.5

# Speed up simulation with neighbour lists
neighbor 0.3 bin
neigh_modify every 20 delay 0 check yes

# Define thermodynamic ensemble
fix 1 all nvt temp 0.3 0.4 0.6

# Define trajectory file name and content...
dump 1 all custom 10 dump.lammpstrj id type x y vx vy

# Define thermodynamic data file (log.lammps)
thermo_style custom time pe ke temp press
thermo 100

# run simulation + number of steps
timestep 0.003
run 10000
Generated 0 of 0 mixed pair_coeff terms from geometric mixing rule
Neighbor list info ...
  update: every = 20 steps, delay = 0 steps, check = yes
  max neighbors/atom: 2000, page size: 100000
  master list distance cutoff = 2.8
  ghost atom cutoff = 2.8
  binsize = 1.4, bins = 22 22 1
  1 neighbor lists, perpetual/occasional/extra = 1 0 0
  (1) pair lj/cut, perpetual
      attributes: half, newton on
      pair build: half/bin/atomonly/newton
      stencil: half/bin/2d
      bin: standard
Per MPI rank memory allocation (min/avg/max) = 3.056 | 3.056 | 3.056 Mbytes
     Time          PotEng         KinEng          Temp          Press     
 0              14.940744      0.59899666     0.6            68.039576    
 0.3           -0.85140904     4.2215302      4.2286015      7.9120957    
 0.6           -1.5564369      1.720757       1.7236393      3.1824792    
 0.9           -1.7900727      0.86379391     0.8652408      1.5385256    
 1.2           -1.9117862      0.52900673     0.52989284     0.80767032   
 1.5           -2.0325599      0.40798485     0.40866824     0.12100389   
 1.8           -2.1070941      0.32972877     0.33028108    -0.21055359   
 2.1           -2.1513037      0.27308211     0.27353953    -0.45692829   
 2.4           -2.1890553      0.25110424     0.25152485    -0.60311194   
 2.7           -2.2175599      0.25044967     0.25086919    -0.65092025   
 3             -2.2096737      0.23957625     0.23997755    -0.55166821   
 3.3           -2.2029024      0.25594077     0.25636948    -0.40797516   
 3.6           -2.2099786      0.3086615      0.30917852    -0.31675909   
 3.9           -2.1837787      0.33247348     0.33303039    -0.12112585   
 4.2           -2.1776846      0.36630129     0.36691486    -0.061383101  
 4.5           -2.1545999      0.35666299     0.35726042    -0.12084779   
 4.8           -2.1654207      0.35422872     0.35482207    -0.26765767   
 5.1           -2.1697021      0.3273513      0.32789963    -0.39931701   
 5.4           -2.1944499      0.31896369     0.31949797    -0.5180967    
 5.7           -2.1901201      0.28761743     0.2880992     -0.35222396   
 6             -2.2089072      0.29196194     0.29245099    -0.39701371   
 6.3           -2.2299933      0.30838732     0.30890388    -0.45347183   
 6.6           -2.2409304      0.32205781     0.32259727    -0.25961075   
 6.9           -2.2346119      0.32091499     0.32145254    -0.071235778  
 7.2           -2.2488427      0.33976846     0.34033758    -0.19603754   
 7.5           -2.2707175      0.36094914     0.36155375    -0.25931708   
 7.8           -2.2669344      0.34385481     0.34443078    -0.1123334    
 8.1           -2.2608588      0.32127582     0.32181397    -0.14951334   
 8.4           -2.2617886      0.3057093      0.30622138    -0.18447256   
 8.7           -2.2900576      0.32206024     0.3225997     -0.23488428   
 9             -2.2913388      0.31546299     0.3159914     -0.282563     
 9.3           -2.3014185      0.32176353     0.3223025     -0.18576959   
 9.6           -2.3258164      0.34652312     0.34710357    -0.18576784   
 9.9           -2.3384639      0.35427569     0.35486912    -0.14801321   
 10.2          -2.3285064      0.33425044     0.33481032    -0.1856207    
 10.5          -2.3375362      0.33253487     0.33309188    -0.24973659   
 10.8          -2.3387631      0.32526061     0.32580543    -0.12899268   
 11.1          -2.3536347      0.33350246     0.33406109    -0.14211123   
 11.4          -2.3660358      0.34137772     0.34194954    -0.12950096   
 11.7          -2.3727445      0.34602418     0.34660378    -0.041747233  
 12            -2.3672223      0.33825667     0.33882326    -0.1673711    
 12.3          -2.356912       0.3266155      0.32716259    -0.19633932   
 12.6          -2.3601933      0.33304097     0.33359883    -0.20915612   
 12.9          -2.3593846      0.33999137     0.34056087    -0.2180583    
 13.2          -2.3616244      0.35089795     0.35148571    -0.093481488  
 13.5          -2.3641181      0.35987801     0.36048082    -0.05225883   
 13.8          -2.3607455      0.35917276     0.35977439    -0.01983649   
 14.1          -2.3584183      0.3557436      0.35633949     0.018284927  
 14.4          -2.3691148      0.36111053     0.3617154     -0.066169759  
 14.7          -2.3717019      0.35545084     0.35604624    -0.019382281  
 15            -2.387897       0.36034571     0.3609493     -0.14934358   
 15.3          -2.3929209      0.35444243     0.35503613    -0.18916599   
 15.6          -2.3831135      0.3386157      0.33918289    -0.12377429   
 15.9          -2.3768748      0.33487826     0.3354392     -0.041906384  
 16.2          -2.376648       0.34652752     0.34710797    -0.11123128   
 16.5          -2.370914       0.357616       0.35821502    -0.091051068  
 16.8          -2.387875       0.39172861     0.39238477    -0.060420054  
 17.1          -2.369375       0.38202382     0.38266373    -0.049594644  
 17.4          -2.3403688      0.35280892     0.35339989     0.17544751   
 17.7          -2.3682069      0.37533357     0.37596227    -0.15529612   
 18            -2.3663868      0.36501166     0.36562307    -0.070582115  
 18.3          -2.361411       0.35209601     0.35268578    -0.10321434   
 18.6          -2.3609127      0.34945335     0.3500387     -0.19533272   
 18.9          -2.3401837      0.33367181     0.33423072    -0.100085     
 19.2          -2.3619447      0.36782189     0.36843801    -0.1514435    
 19.5          -2.3454267      0.36463025     0.36524102    -0.023035685  
 19.8          -2.3561813      0.38478986     0.3854344     -0.077266373  
 20.1          -2.3396087      0.37266153     0.37328575     0.058624626  
 20.4          -2.3540747      0.38629564     0.3869427     -0.06483425   
 20.7          -2.3568948      0.38792785     0.38857765    -0.11393099   
 21            -2.3495386      0.37678523     0.37741636    -0.093824849  
 21.3          -2.3436664      0.3675429      0.36815855    -0.10030588   
 21.6          -2.336908       0.35913596     0.35973753     0.061944169  
 21.9          -2.3488867      0.37399875     0.37462522    -0.083959902  
 22.2          -2.3328787      0.364537       0.36514762    -0.072558873  
 22.5          -2.3255127      0.36776993     0.36838596    -0.061746278  
 22.8          -2.3202662      0.37705069     0.37768227    -0.037155249  
 23.1          -2.3203743      0.38979038     0.3904433      0.020898185  
 23.4          -2.3005673      0.38037406     0.3810112      0.031607676  
 23.7          -2.3011376      0.38630553     0.38695261    -0.0084617351 
 24            -2.3090826      0.3942844      0.39494484    -0.13175004   
 24.3          -2.313121       0.39487335     0.39553478    -0.095632402  
 24.6          -2.3130149      0.3892634      0.38991543    -0.05360882   
 24.9          -2.2982782      0.36833139     0.36894836     0.014951328  
 25.2          -2.3029674      0.37224015     0.37286367    -0.08165982   
 25.5          -2.2984811      0.37240071     0.3730245     -0.0016837636 
 25.8          -2.2904936      0.37741364     0.37804582     0.04192138   
 26.1          -2.281591       0.38627467     0.3869217      0.055821093  
 26.4          -2.268108       0.39149816     0.39215394     0.01043701   
 26.7          -2.2781558      0.41474701     0.41544173    -0.027913922  
 27            -2.2566051      0.39786486     0.3985313      0.069934998  
 27.3          -2.2618839      0.40098527     0.40165694    -0.045322421  
 27.6          -2.2657942      0.4024145      0.40308857    -0.067432829  
 27.9          -2.2464182      0.38112282     0.38176122     0.04729447   
 28.2          -2.2612672      0.39665566     0.39732008     0.043045241  
 28.5          -2.2616687      0.39712016     0.39778535     0.0077948082 
 28.8          -2.2588612      0.39679018     0.39745482     0.022850031  
 29.1          -2.2691588      0.40868831     0.40937288     0.025714851  
 29.4          -2.2513473      0.39170677     0.3923629      0.017339989  
 29.7          -2.2584092      0.39951836     0.40018757    -0.081665122  
 30            -2.2450662      0.3902501      0.39090378     0.043951851  
Loop time of 4.86265 on 1 procs for 10000 steps with 598 atoms

Performance: 533042.573 tau/day, 2056.491 timesteps/s, 1.230 Matom-step/s
71.7% CPU use with 1 MPI tasks x 1 OpenMP threads

MPI task timing breakdown:
Section |  min time  |  avg time  |  max time  |%varavg| %total
---------------------------------------------------------------
Pair    | 1.0648     | 1.0648     | 1.0648     |   0.0 | 21.90
Neigh   | 0.063412   | 0.063412   | 0.063412   |   0.0 |  1.30
Comm    | 0.031919   | 0.031919   | 0.031919   |   0.0 |  0.66
Output  | 3.0881     | 3.0881     | 3.0881     |   0.0 | 63.51
Modify  | 0.20712    | 0.20712    | 0.20712    |   0.0 |  4.26
Other   |            | 0.4073     |            |       |  8.38

Nlocal:            598 ave         598 max         598 min
Histogram: 1 0 0 0 0 0 0 0 0 0
Nghost:            194 ave         194 max         194 min
Histogram: 1 0 0 0 0 0 0 0 0 0
Neighs:           4897 ave        4897 max        4897 min
Histogram: 1 0 0 0 0 0 0 0 0 0

Total # of neighbors = 4897
Ave neighs/atom = 8.1889632
Neighbor list builds = 273
Dangerous builds = 47
Total wall time: 0:00:04
