LAMMPS (2 Aug 2023 - Maintenance - lammps-gui-v1.2)
OMP_NUM_THREADS environment is not set. Defaulting to 1 thread. (src/comm.cpp:98)
  using 1 OpenMP thread(s) per MPI task
Loaded 1 plugins from C:\Users\lasse\AppData\Local\LAMMPS 64-bit 2Aug2023 with GUI\plugins
# Define variables
# Length of sides of cubic box
variable L equal 5
# Temperature:
variable T equal 0.69
# Density:
variable rho equal 0.001
# Pressure:
variable P equal 0.01
# Set Pconst=1 for pressure constant, Pconst=0 for volume constant
variable Pconst equal 0

units lj
dimension 3
lattice fcc ${rho}
lattice fcc 0.001
Lattice spacing in x,y,z = 15.874011 15.874011 15.874011
region simbox block 0 $L 0 $L 0 $L
region simbox block 0 5 0 $L 0 $L
region simbox block 0 5 0 5 0 $L
region simbox block 0 5 0 5 0 5
create_box 1 simbox
Created orthogonal box = (0 0 0) to (79.370053 79.370053 79.370053)
  1 by 1 by 1 MPI processor grid
create_atoms 1 box
Created 500 atoms
  using lattice units in orthogonal box = (0 0 0) to (79.370053 79.370053 79.370053)
  create_atoms CPU = 0.001 seconds

mass 1 1.0
velocity all create $T 87287
velocity all create 0.69 87287
pair_style lj/cut 2.5
pair_coeff 1 1 1.0 1.0 2.5

if "${Pconst} == 0" then "fix nvt all nvt temp $T $T 1" else "fix npt all npt temp $T $T 1 iso $P $P 1"
fix nvt all nvt temp $T $T 1
fix nvt all nvt temp 0.69 $T 1
fix nvt all nvt temp 0.69 0.69 1
neigh_modify every 1 delay 0 check yes


#Thermalization run
run 1000
Generated 0 of 0 mixed pair_coeff terms from geometric mixing rule
Neighbor list info ...
  update: every = 1 steps, delay = 0 steps, check = yes
  max neighbors/atom: 2000, page size: 100000
  master list distance cutoff = 2.8
  ghost atom cutoff = 2.8
  binsize = 1.4, bins = 57 57 57
  1 neighbor lists, perpetual/occasional/extra = 1 0 0
  (1) pair lj/cut, perpetual
      attributes: half, newton on
      pair build: half/bin/atomonly/newton
      stencil: half/bin/3d
      bin: standard
Per MPI rank memory allocation (min/avg/max) = 3.97 | 3.97 | 3.97 Mbytes
   Step          Temp          E_pair         E_mol          TotEng         Press     
         0   0.69           0              0              1.03293        0.00068862   
      1000   0.68517279    -0.0032085131   0              1.0224952      0.00067881114
Loop time of 0.027457 on 1 procs for 1000 steps with 500 atoms

Performance: 15733692.683 tau/day, 36420.585 timesteps/s, 18.210 Matom-step/s
113.8% CPU use with 1 MPI tasks x 1 OpenMP threads

MPI task timing breakdown:
Section |  min time  |  avg time  |  max time  |%varavg| %total
---------------------------------------------------------------
Pair    | 0.001286   | 0.001286   | 0.001286   |   0.0 |  4.68
Neigh   | 0.011983   | 0.011983   | 0.011983   |   0.0 | 43.64
Comm    | 0.001403   | 0.001403   | 0.001403   |   0.0 |  5.11
Output  | 0.000298   | 0.000298   | 0.000298   |   0.0 |  1.09
Modify  | 0.008869   | 0.008869   | 0.008869   |   0.0 | 32.30
Other   |            | 0.003618   |            |       | 13.18

Nlocal:            500 ave         500 max         500 min
Histogram: 1 0 0 0 0 0 0 0 0 0
Nghost:            117 ave         117 max         117 min
Histogram: 1 0 0 0 0 0 0 0 0 0
Neighs:             13 ave          13 max          13 min
Histogram: 1 0 0 0 0 0 0 0 0 0

Total # of neighbors = 13
Ave neighs/atom = 0.026
Neighbor list builds = 76
Dangerous builds = 0

if "${Pconst} == 0" then "unfix nvt" "fix nve all nve" else "unfix npt" "fix nph all nph iso $P $P 1"
unfix nvt
fix nve all nve

#Start heat addition and run to stabilize
variable eFlux equal 10
fix heat all heat 1 ${eFlux} region simbox
fix heat all heat 1 10 region simbox
run 1000
Generated 0 of 0 mixed pair_coeff terms from geometric mixing rule
Per MPI rank memory allocation (min/avg/max) = 3.97 | 3.97 | 3.97 Mbytes
   Step          Temp          E_pair         E_mol          TotEng         Press     
      1000   0.68517279    -0.0032085131   0              1.0224952      0.00067881114
      2000   0.75184963    -0.0029573211   0              1.1225616      0.00075208253
Loop time of 0.037772 on 1 procs for 1000 steps with 500 atoms

Performance: 11437043.313 tau/day, 26474.637 timesteps/s, 13.237 Matom-step/s
82.7% CPU use with 1 MPI tasks x 1 OpenMP threads

MPI task timing breakdown:
Section |  min time  |  avg time  |  max time  |%varavg| %total
---------------------------------------------------------------
Pair    | 0.001509   | 0.001509   | 0.001509   |   0.0 |  4.00
Neigh   | 0.011994   | 0.011994   | 0.011994   |   0.0 | 31.75
Comm    | 0.001214   | 0.001214   | 0.001214   |   0.0 |  3.21
Output  | 0.000291   | 0.000291   | 0.000291   |   0.0 |  0.77
Modify  | 0.019185   | 0.019185   | 0.019185   |   0.0 | 50.79
Other   |            | 0.003579   |            |       |  9.48

Nlocal:            500 ave         500 max         500 min
Histogram: 1 0 0 0 0 0 0 0 0 0
Nghost:             94 ave          94 max          94 min
Histogram: 1 0 0 0 0 0 0 0 0 0
Neighs:             15 ave          15 max          15 min
Histogram: 1 0 0 0 0 0 0 0 0 0

Total # of neighbors = 15
Ave neighs/atom = 0.03
Neighbor list builds = 78
Dangerous builds = 0

#Define new thermodynamic output and trajectory dump and start production run
thermo_style custom step temp epair etotal press
thermo 100
dump 1 all custom 100 dump.lammpstrj id x y z vx vy vz
run 200000
Generated 0 of 0 mixed pair_coeff terms from geometric mixing rule
Per MPI rank memory allocation (min/avg/max) = 3.97 | 3.97 | 3.97 Mbytes
   Step          Temp          E_pair         TotEng         Press     
      2000   0.75184963    -0.0029573211   1.1225616      0.00075208253
      2100   0.75967258    -0.0046450949   1.1325848      0.00077964161
      2200   0.76518456    -0.0029860154   1.1424953      0.00076117885
      2300   0.77117914    -0.0020893586   1.1523658      0.00076563851
      2400   0.78026608    -0.0058246788   1.1622336      0.0007773189 
      2500   0.78715382    -0.0060697662   1.1722995      0.00077741905
      2600   0.79572521    -0.008964958    1.1822357      0.00080049049
      2700   0.80299914    -0.0099182761   1.1921714      0.00080490963
      2800   0.80865851    -0.0084229366   1.2021389      0.00079385839
      2900   0.8154176     -0.008378443    1.2123017      0.00080096549
      3000   0.81876562    -0.0035208383   1.2221713      0.00081082434
      3100   0.827003      -0.0057240017   1.2322995      0.00082037307
      3200   0.83252556    -0.0039250803   1.2423657      0.00082372761
      3300   0.83929264    -0.004022527    1.2523986      0.00083170826
      3400   0.84652402    -0.0048480196   1.2623984      0.00083757276
      3500   0.85507098    -0.0078138146   1.2722274      0.00084816501
      3600   0.86159513    -0.0075743627   1.2822335      0.00085508463
      3700   0.86779319    -0.006752643    1.2923338      0.00085641463
      3800   0.87336552    -0.0050610965   1.3023671      0.00086374799
      3900   0.87964929    -0.0044684402   1.3123666      0.00087051721
      4000   0.88506647    -0.0025440106   1.3224005      0.00089115337
      4100   0.8915333     -0.0021608417   1.3324645      0.00088563551
      4200   0.89879945    -0.0030703419   1.3424324      0.00089181952
      4300   0.90665821    -0.0049670599   1.3523003      0.00091106215
      4400   0.9133769     -0.0051215537   1.3622037      0.00090230377
      4500   0.92182765    -0.0077082229   1.3722678      0.00091763965
      4600   0.9281675     -0.0072305766   1.3822362      0.00092877816
      4700   0.9319522     -0.0029622513   1.3921702      0.00092452763
      4800   0.93878519    -0.002963978    1.4023975      0.00093184857
      4900   0.94481289    -0.0020865667   1.4122983      0.00093888678
      5000   0.95366474    -0.005401729    1.4222344      0.00095034291
      5100   0.96262811    -0.0088211063   1.4322332      0.00095192843
      5200   0.9676829     -0.0063223345   1.442299       0.00095561581
      5300   0.97271591    -0.0040871907   1.4520685      0.00096300231
      5400   0.98728926    -0.015971973    1.462          0.00097362485
      5500   0.99173855    -0.012535694    1.4720969      0.00098100056
      5600   0.99359295    -0.0052134251   1.4821952      0.00098214441
      5700   1.0003642     -0.0053511239   1.492194       0.00099132476
      5800   1.0061374     -0.0038958555   1.5022919      0.001001527  
      5900   1.0123445     -0.0030181006   1.5124616      0.0010481091 
      6000   1.0182965     -0.0019997211   1.5223901      0.0010124148 
      6100   1.0262773     -0.0039481757   1.5323889      0.0010176624 
      6200   1.0336534     -0.0050561559   1.542323       0.0010333478 
      6300   1.0385238     -0.002281162    1.552389       0.0010320423 
      6400   1.0469108     -0.0050669321   1.5621585      0.0010436081 
      6500   1.0523125     -0.0031190366   1.5721927      0.0010442183 
      6600   1.0635647     -0.0099027332   1.5822537      0.0010553883 
      6700   1.0665076     -0.0042067216   1.5923552      0.0010635446 
      6800   1.07526       -0.0074441795   1.60222        0.0010746472 
      6900   1.081959      -0.0075342231   1.6121584      0.001089013  
      7000   1.0896673     -0.0090736854   1.6221582      0.0010747988 
      7100   1.0976221     -0.01101657     1.6321236      0.0010879492 
      7200   1.1042288     -0.010937336    1.6420931      0.0010864126 
      7300   1.1104582     -0.010262506    1.6520935      0.0010972036 
      7400   1.1150592     -0.0070171846   1.6622264      0.0011057232 
      7500   1.1213054     -0.0063024761   1.6722917      0.0011114695 
      7600   1.1265205     -0.004076047    1.6823251      0.0011168757 
      7700   1.1334499     -0.0044488175   1.6923257      0.0011229196 
      7800   1.1417315     -0.006945585    1.7022265      0.0011596009 
      7900   1.1484813     -0.0070166997   1.7122598      0.0011379146 
      8000   1.1548262     -0.0065816674   1.7221932      0.0011415289 
      8100   1.1661981     -0.013738458    1.7320602      0.0011537462 
      8200   1.1661967     -0.0035718929   1.7422245      0.00117552   
      8300   1.1736602     -0.004743864    1.7522255      0.0011639334 
      8400   1.1810055     -0.0058086768   1.7621566      0.0011717034 
      8500   1.189325      -0.0081300642   1.7722895      0.0011833183 
      8600   1.1962462     -0.008556527    1.782224       0.00118088   
      8700   1.2034323     -0.0093143079   1.7922239      0.0011917603 
      8800   1.2086701     -0.0069956352   1.8023835      0.0012002156 
      8900   1.2148688     -0.0063055437   1.8123531      0.0012061818 
      9000   1.2188877     -0.0022555009   1.8224194      0.0012121979 
      9100   1.2260691     -0.0029408085   1.8324846      0.0012186224 
      9200   1.2332722     -0.0035948064   1.8426137      0.0012287693 
      9300   1.2402109     -0.0042415206   1.8523542      0.0012305541 
      9400   1.2462064     -0.0032820297   1.862289       0.0012374404 
      9500   1.2539249     -0.0050007671   1.8721249      0.0012453324 
      9600   1.2626916     -0.0079606552   1.8822887      0.0012655245 
      9700   1.266102      -0.0029023709   1.8924523      0.0012586521 
      9800   1.2738668     -0.0047876049   1.9021911      0.0012697778 
      9900   1.2829196     -0.0084370308   1.9120936      0.0012664656 
     10000   1.2923022     -0.012385554    1.9221909      0.0012988012 
     10100   1.2946959     -0.006071283    1.9320885      0.0012876114 
     10200   1.2972169      0.0002425595   1.9421763      0.0013314508 
     10300   1.3079148     -0.0057942501   1.9521541      0.0012991194 
     10400   1.315621      -0.0071983919   1.9622863      0.0013040487 
     10500   1.3208068     -0.0049624608   1.9722853      0.0013102766 
     10600   1.3297343     -0.0082935914   1.9823186      0.0013171314 
     10700   1.3345144     -0.0053888997   1.9923791      0.0013346583 
     10800   1.3396408     -0.0029362552   2.0025061      0.0013373149 
     10900   1.3403168      0.0060402587   2.0124945      0.0014050033 
     11000   1.3534685     -0.003736882    2.0224055      0.0013800889 
     11100   1.360571      -0.0044574785   2.0323173      0.0013515745 
     11200   1.3670234     -0.0041492136   2.0422848      0.0013592557 
     11300   1.374775      -0.0056677966   2.0523703      0.0013928575 
     11400   1.3810897     -0.0052129982   2.0622783      0.001393655  
     11500   1.3864565     -0.0032720238   2.0722533      0.0013923434 
     11600   1.3961399     -0.0078701801   2.0821512      0.0013811682 
     11700   1.3993167     -0.0025031411   2.092274       0.0014151306 
     11800   1.4063016     -0.0029479995   2.1022855      0.0014223269 
     11900   1.415541      -0.0067839242   2.112281       0.0014042909 
     12000   1.4164456      0.0018838101   2.1223028      0.0014538936 
     12100   1.4278461     -0.0052684229   2.1322172      0.0014293334 
     12200   1.4365935     -0.0083984308   2.142182       0.0014238311 
     12300   1.4417441     -0.0060096367   2.1522814      0.0014289093 
     12400   1.4490439     -0.0069047195   2.162314       0.0014419099 
     12500   1.4560321     -0.007399786    2.1722802      0.0014422164 
     12600   1.4647119     -0.010461607    2.1822121      0.0014490665 
     12700   1.4692533     -0.0072599907   2.1922121      0.0014663551 
     12800   1.4750315     -0.005678272    2.2024438      0.0014689092 
     12900   1.4818188     -0.0059686842   2.212314       0.0014713841 
     13000   1.4875134     -0.0045907928   2.2222168      0.0014769089 
     13100   1.4960818     -0.007417011    2.2322174      0.0014847875 
     13200   1.5040063     -0.0093186447   2.2421788      0.0015014922 
     13300   1.5099591     -0.0081907473   2.2522181      0.0014946076 
     13400   1.5150273     -0.0058071757   2.2621887      0.0015062659 
     13500   1.524423      -0.0098410003   2.2722203      0.0015089928 
     13600   1.5310658     -0.0097840158   2.2822215      0.0015146752 
     13700   1.537692      -0.0098318313   2.2920931      0.0015203773 
     13800   1.543536      -0.0084782881   2.3021951      0.001545239  
     13900   1.548898      -0.006379188    2.3123211      0.001536608  
     14000   1.5503467      0.0015410336   2.3224101      0.0015973699 
     14100   1.5624612     -0.0068167669   2.3321876      0.0015529316 
     14200   1.5694869     -0.0074326302   2.3420892      0.0015599609 
     14300   1.5768772     -0.0084954157   2.3520898      0.0015609254 
     14400   1.5831427     -0.0080386907   2.361926       0.0015725803 
     14500   1.5880516     -0.0051852995   2.372128       0.0016001053 
     14600   1.5967814     -0.0081968381   2.382185       0.0016123804 
     14700   1.601325      -0.0049025451   2.392281       0.0015897379 
     14800   1.6080311     -0.0047783005   2.4024443      0.0015988025 
     14900   1.6146097     -0.0046597316   2.4124109      0.0016039591 
     15000   1.6225107     -0.0065879896   2.4223105      0.0016117866 
     15100   1.6325892     -0.011674861    2.4323112      0.0016215156 
     15200   1.6370172     -0.0084666766   2.4421481      0.0016315738 
     15300   1.6437885     -0.0087022451   2.4520492      0.0016284842 
     15400   1.6509027     -0.0091521297   2.4622493      0.0016337351 
     15500   1.6570196     -0.0083092551   2.472249       0.0016413501 
     15600   1.662082      -0.0056911515   2.4824457      0.0016525613 
     15700   1.6700737     -0.007888791    2.4922116      0.0016622799 
     15800   1.6791345     -0.011657714    2.5020066      0.0016793799 
     15900   1.6843888     -0.0095402921   2.5119897      0.0016705386 
     16000   1.6886535     -0.0057935992   2.5221206      0.0016758035 
     16100   1.6954102     -0.0058424055   2.5321867      0.0016824908 
     16200   1.7019289     -0.0055034765   2.5422842      0.001709991  
     16300   1.7077714     -0.0043822336   2.5521515      0.001705193  
     16400   1.7171896     -0.0083522777   2.5622806      0.0017127984 
     16500   1.720541      -0.0034309564   2.5722189      0.0017106669 
     16600   1.7334653     -0.013042962    2.5819546      0.0017157609 
     16700   1.7408343     -0.014170376    2.5918586      0.0017255497 
     16800   1.7442852     -0.009203153    2.6019918      0.0017260823 
     16900   1.7482913     -0.0050349805   2.612157       0.0017381217 
     17000   1.758006      -0.0095442353   2.6221907      0.0017521367 
     17100   1.7607149     -0.0035917782   2.6321985      0.0017755993 
     17200   1.7697587     -0.0072010875   2.6421277      0.0017570741 
     17300   1.7755712     -0.0058044905   2.6522257      0.0017616984 
     17400   1.7822535     -0.0057727101   2.6622607      0.0017895994 
     17500   1.7899361     -0.0074073794   2.672127       0.0017785429 
     17600   1.7978961     -0.0091955849   2.6822548      0.0017901422 
     17700   1.8017929     -0.0050892611   2.6921946      0.0017894223 
     17800   1.80957       -0.0066453796   2.7022809      0.0018335917 
     17900   1.814481      -0.003988353    2.7122897      0.001809092  
     18000   1.8218742     -0.005120306    2.7222253      0.0018182075 
     18100   1.8292677     -0.0061876304   2.7322261      0.0018168115 
     18200   1.8362515     -0.0066423319   2.7422261      0.0018266125 
     18300   1.841055      -0.003781449    2.752278       0.0018435575 
     18400   1.8467409     -0.0021495648   2.7624215      0.0018390799 
     18500   1.8552592     -0.0049728752   2.7723502      0.0018534166 
     18600   1.8610448     -0.0034665503   2.7825176      0.0018585982 
     18700   1.8681226     -0.0041590421   2.7924205      0.0018575434 
     18800   1.8770379     -0.0076672285   2.8022585      0.0018719933 
     18900   1.8827172     -0.0062675082   2.8121601      0.0018699948 
     19000   1.891053      -0.0088110615   2.8220953      0.0018843608 
     19100   1.8971457     -0.0079341776   2.8320929      0.0018812797 
     19200   1.9028099     -0.0060893323   2.8424171      0.0018897944 
     19300   1.9089022     -0.0052074723   2.8524191      0.0019117291 
     19400   1.9159337     -0.0058339201   2.8623188      0.0019024759 
     19500   1.9246591     -0.0091245674   2.8720901      0.0019101232 
     19600   1.9314643     -0.0093114927   2.8820906      0.0019141463 
     19700   1.9358966     -0.0056865648   2.8923506      0.0019250642 
     19800   1.9426573     -0.0058755114   2.9022825      0.0019661094 
     19900   1.9467496     -0.0018281973   2.912456       0.0019394912 
     20000   1.9557165     -0.0054136429   2.9222939      0.0019439667 
     20100   1.9630573     -0.0064373967   2.9322593      0.0019496985 
     20200   1.9711874     -0.0086758325   2.9421917      0.0019555024 
     20300   1.9765668     -0.0066989646   2.9522215      0.0019650009 
     20400   1.981822      -0.0045627129   2.9622248      0.0019694511 
     20500   1.9919867     -0.0098409812   2.9721631      0.0020031888 
     20600   1.9957787     -0.0054548014   2.982226       0.0019954446 
     20700   2.0026002     -0.0054717573   2.9924208      0.0019907419 
     20800   2.0094999     -0.005995835    3.0022255      0.0019975416 
     20900   2.0154562     -0.0047499206   3.012388       0.0020089161 
     21000   2.0210005     -0.0030491348   3.0223887      0.0020118594 
     21100   2.0322792     -0.010092986    3.032229       0.0020264026 
     21200   2.0352681     -0.0047341498   3.0420622      0.002022311  
     21300   2.0433994     -0.0067107451   3.0522582      0.0020381485 
     21400   2.0496838     -0.0059359119   3.0624407      0.0020704676 
     21500   2.0537506     -0.0020729866   3.0723916      0.002045653  
     21600   2.0606616     -0.0023537501   3.0824566      0.0020521325 
     21700   2.0689117     -0.0047693797   3.0923914      0.0020566749 
     21800   2.0742694     -0.0028471761   3.1023341      0.0020905329 
     21900   2.0840358     -0.0073165439   3.112485       0.002086739  
     22000   2.0879502     -0.003206654    3.1224548      0.002078046  
     22100   2.095541      -0.0047332639   3.1322916      0.0020845712 
     22200   2.1014703     -0.0037396769   3.1421614      0.0020908337 
     22300   2.1080153     -0.0033831207   3.1523158      0.0021238472 
     22400   2.1139645     -0.0022766937   3.1623282      0.0021053522 
     22500   2.1217143     -0.0038418662   3.1723644      0.0021486771 
     22600   2.127945      -0.003140567    3.1823931      0.0021180025 
     22700   2.1348391     -0.0034918172   3.1923623      0.0021241359 
     22800   2.1410445     -0.0027821859   3.2023615      0.0021551515 
     22900   2.1501249     -0.0063444333   3.2123926      0.0021382812 
     23000   2.1547486     -0.0032942389   3.2223645      0.0021556148 
     23100   2.1614625     -0.0035075364   3.2322018      0.0021507256 
     23200   2.1674551     -0.0026672413   3.242013       0.0021804348 
     23300   2.1772559     -0.0072125702   3.2521395      0.002180893  
     23400   2.1854217     -0.0093755653   3.2622008      0.0021664419 
     23500   2.1910285     -0.0076384892   3.2723311      0.0021747831 
     23600   2.1968906     -0.0065055952   3.2822396      0.0022049613 
     23700   2.2016448     -0.0035941994   3.292268       0.0021906591 
     23800   2.2080357     -0.0031915556   3.3022379      0.002197733  
     23900   2.2195096     -0.010302353    3.3123035      0.0022046489 
     24000   2.2232195     -0.005759353    3.3224003      0.0022109442 
     24100   2.2319315     -0.0088998714   3.3323016      0.0022176886 
     24200   2.2368853     -0.0065763228   3.3420409      0.0022218332 
     24300   2.2447536     -0.008159826    3.3522363      0.0022339401 
     24400   2.252825      -0.010274288    3.3622047      0.0022371354 
     24500   2.2578308     -0.0076035807   3.3723691      0.0022532183 
     24600   2.2676        -0.012366355    3.3822309      0.0022556781 
     24700   2.2695839     -0.0053287645   3.3922383      0.0022574513 
     24800   2.2793432     -0.0098024407   3.4023744      0.0022856968 
     24900   2.2847356     -0.0080745688   3.4121746      0.0022683428 
     25000   2.290997      -0.0075505041   3.422072       0.0022784417 
     25100   2.299899      -0.010775396    3.4321734      0.0022844073 
     25200   2.2983526      0.001623705    3.4422575      0.0023483652 
     25300   2.308893      -0.0041583667   3.4522545      0.0023156645 
     25400   2.3170428     -0.006375843    3.4622373      0.0023047282 
     25500   2.32505       -0.0085255731   3.4720742      0.002306373  
     25600   2.3310787     -0.0072622897   3.4823625      0.0023222928 
     25700   2.3375546     -0.0070514197   3.4922679      0.0023239842 
     25800   2.3437602     -0.0064367529   3.5021723      0.0023297618 
     25900   2.3525711     -0.0097304199   3.5120686      0.0023584231 
     26000   2.3573454     -0.006801988    3.522144       0.0023419003 
     26100   2.3661329     -0.0097621915   3.5323387      0.0023514619 
     26200   2.3741867     -0.01194932     3.5422082      0.0023541862 
     26300   2.3780274     -0.0077322192   3.5521747      0.0023684065 
     26400   2.3846608     -0.0075640726   3.5622731      0.0023734333 
     26500   2.3913352     -0.0074651602   3.5723637      0.0023929773 
     26600   2.3976025     -0.0068693867   3.5823416      0.0023830963 
     26700   2.403875      -0.0064583728   3.5921425      0.0023947705 
     26800   2.413491      -0.010658196    3.6023378      0.0024032996 
     26900   2.4170302     -0.0060162295   3.612278       0.0024043104 
     27000   2.4217952     -0.0031833364   3.622244       0.0024544423 
     27100   2.4294856     -0.0044620915   3.6324778      0.0024274971 
     27200   2.4366054     -0.0051821722   3.642416       0.0024243495 
     27300   2.4452457     -0.0083154201   3.6522173      0.0024280926 
     27400   2.4506414     -0.0062926571   3.6623175      0.0024397845 
     27500   2.4558097     -0.0039608075   3.6723863      0.0024442728 
     27600   2.4643459     -0.006640032    3.6824858      0.0024593008 
     27700   2.4691018     -0.0037610448   3.6924844      0.0024582848 
     27800   2.478301      -0.0076053019   3.7024113      0.0024720851 
     27900   2.4849856     -0.0079638845   3.7120596      0.0024899824 
     28000   2.4905774     -0.0059784361   3.722416       0.0024773141 
     28100   2.4999991     -0.010344661    3.732154       0.0024887613 
     28200   2.5079087     -0.01218463     3.7421547      0.00249173   
     28300   2.5122949     -0.0086182616   3.7522872      0.0024985252 
     28400   2.5174696     -0.0062023518   3.7624497      0.0025058224 
     28500   2.5238998     -0.0057969968   3.772481       0.0025149718 
     28600   2.5313175     -0.0068697923   3.7825126      0.0025192435 
     28700   2.5387437     -0.0082163708   3.792283       0.0025225028 
     28800   2.5454517     -0.0082284297   3.8023128      0.0025390181 
     28900   2.5505005     -0.0057858998   3.8123133      0.0025447966 
     29000   2.558136      -0.0071512251   3.8223783      0.0025492257 
     29100   2.5584809      0.0022910136   3.8323369      0.0026013628 
     29200   2.5751322     -0.012663819    3.8423091      0.0025566578 
     29300   2.5781144     -0.0070961194   3.8523411      0.0025616294 
     29400   2.5845587     -0.0067797868   3.8623046      0.0025697275 
     29500   2.5923063     -0.0083765213   3.872306       0.0025746961 
     29600   2.6004562     -0.010641432    3.8822415      0.0025793708 
     29700   2.6072141     -0.01062861     3.8923709      0.0025927479 
     29800   2.612367      -0.0085023728   3.9022111      0.0025974308 
     29900   2.618221      -0.0071362586   3.9123406      0.0026092116 
     30000   2.6247228     -0.006805488    3.9224045      0.002613091  
     30100   2.6318761     -0.0076117096   3.9323069      0.0026172205 
     30200   2.6373683     -0.0059225326   3.9422178      0.0026410378 
     30300   2.6432364     -0.0046586557   3.9522662      0.0026787405 
     30400   2.6515579     -0.0072055077   3.9621766      0.0026364217 
     30500   2.6597282     -0.0094031453   3.9722099      0.0026407492 
     30600   2.665314      -0.0077655134   3.9822096      0.0026621664 
     30700   2.669959      -0.0046866759   3.9922419      0.0026613099 
     30800   2.6799093     -0.009545729    4.0022785      0.0026840925 
     30900   2.6860366     -0.0088229029   4.0121738      0.0026874936 
     31000   2.6906        -0.0055822365   4.0222459      0.0026772865 
     31100   2.6963995     -0.0040673242   4.0324427      0.0026871787 
     31200   2.7013086     -0.0015904736   4.0422685      0.0027286559 
     31300   2.7100631     -0.0045854284   4.0523791      0.0026999791 
     31400   2.7190854     -0.0082193546   4.0622516      0.0027029134 
     31500   2.7241359     -0.0060021574   4.0720292      0.002754179  
     31600   2.7332632     -0.0096442553   4.0820507      0.0027229703 
     31700   2.7372571     -0.005491106    4.0921828      0.0027269568 
     31800   2.7460811     -0.0088645389   4.1020189      0.0027329085 
     31900   2.7537186     -0.010343535    4.1119732      0.0027428009 
     32000   2.7623318     -0.013386059    4.1218246      0.0027437297 
     32100   2.7655754     -0.0080119622   4.1320544      0.0027674357 
     32200   2.7726608     -0.0082909712   4.1423822      0.0027589048 
     32300   2.7794236     -0.0083493884   4.1524477      0.0027665754 
     32400   2.7834967     -0.00451165     4.1623829      0.0027724045 
     32500   2.7915775     -0.0066111668   4.1723804      0.0027928306 
     32600   2.7986034     -0.0071264673   4.1823829      0.0027860796 
     32700   2.8054706     -0.0074376672   4.1923518      0.0027927409 
     32800   2.8102837     -0.0045706704   4.2024241      0.0028418057 
     32900   2.8178548     -0.0059094975   4.2124192      0.002806088  
     33000   2.8246152     -0.0061305246   4.2223184      0.0028124316 
     33100   2.8294019     -0.0030969042   4.2325178      0.0028206637 
     33200   2.8390711     -0.0076678584   4.2424216      0.0028283989 
     33300   2.8467025     -0.0091259566   4.2523876      0.0028362779 
     33400   2.8506052     -0.0051287019   4.2622273      0.002838166  
     33500   2.8571462     -0.0047902099   4.2723577      0.0028446023 
     33600   2.8653863     -0.0070279235   4.2824553      0.0028538706 
     33700   2.8732037     -0.0087596214   4.2924263      0.0028593428 
     33800   2.8791281     -0.007699718    4.302355       0.0028835125 
     33900   2.8843915     -0.0056931725   4.312241       0.0029104037 
     34000   2.8860743      0.0019750002   4.3224283      0.0029343788 
     34100   2.8998396     -0.0086127577   4.3324472      0.0029007734 
     34200   2.9062695     -0.0085219633   4.3421635      0.0028922532 
     34300   2.9115002     -0.0062561978   4.3522596      0.0028994904 
     34400   2.9210425     -0.010376914    4.3624237      0.0029088243 
     34500   2.9249068     -0.0063247775   4.3722607      0.0029097751 
     34600   2.9344952     -0.010821848    4.3821174      0.0029514283 
     34700   2.9397393     -0.008723649    4.3920661      0.002920878  
     34800   2.9463351     -0.0084043286   4.4022593      0.0029449163 
     34900   2.9529464     -0.0082661574   4.4122946      0.002938099  
     35000   2.9608696     -0.010126863    4.422295       0.0029438819 
     35100   2.962741      -0.0028633277   4.4323599      0.0029955806 
     35200   2.9738608     -0.0095737692   4.4422958      0.0029601767 
     35300   2.9807259     -0.0098140036   4.4523326      0.0029640871 
     35400   2.9872743     -0.0097167541   4.4622328      0.0029702573 
     35500   2.9905278     -0.004422251    4.4723979      0.0029778375 
     35600   2.99717       -0.0043983048   4.4823651      0.0029875958 
     35700   2.9993519      0.0023158364   4.4923457      0.0030452831 
     35800   3.0127829     -0.0078836166   4.5022524      0.0030009253 
     35900   3.0197643     -0.0083853432   4.5122018      0.0030046707 
     36000   3.0212119     -0.00045286751  4.5223014      0.0030541965 
     36100   3.0330451     -0.0080706039   4.5323979      0.0030248347 
     36200   3.0391341     -0.0071869984   4.5423967      0.0030255708 
     36300   3.0438049     -0.0042024029   4.5523736      0.0030569249 
     36400   3.0574211     -0.014863571    4.5620958      0.0030420597 
     36500   3.0591169     -0.007270614    4.5722273      0.0030435128 
     36600   3.0669341     -0.0088420793   4.5823583      0.0030568849 
     36700   3.072529      -0.007183404    4.5923925      0.0030556035 
     36800   3.0791311     -0.0071009241   4.6023584      0.0030641148 
     36900   3.0837892     -0.0039112923   4.6125211      0.0030723637 
     37000   3.092033      -0.0062867574   4.6224866      0.0030804261 
     37100   3.0977243     -0.0049588429   4.6323344      0.0031231039 
     37200   3.106117      -0.0076087071   4.6422484      0.0030913155 
     37300   3.1121556     -0.0066077005   4.6522892      0.0030993941 
     37400   3.1190508     -0.0070944286   4.6621246      0.0031129911 
     37500   3.1250811     -0.0059578669   4.6722886      0.0031287908 
     37600   3.1313311     -0.0050652982   4.6825373      0.0031235731 
     37700   3.1365308     -0.0028755273   4.6925111      0.0031258686 
     37800   3.1448087     -0.0053644409   4.7024142      0.003132961  
     37900   3.1507879     -0.0043478028   4.7123818      0.0031378147 
     38000   3.1628155     -0.012335859    4.7223989      0.0031706648 
     38100   3.1647083     -0.0052043441   4.7323639      0.0031598543 
     38200   3.1714911     -0.005274171    4.742448       0.0031575033 
     38300   3.1743613      0.00022503759  4.7522439      0.0032221141 
     38400   3.187163      -0.0088358589   4.7623471      0.0031692116 
     38500   3.192431      -0.0070194853   4.7720497      0.0031819252 
     38600   3.1988602     -0.0065082519   4.7821855      0.0031883333 
     38700   3.2062181     -0.0075491841   4.7921593      0.0031919749 
     38800   3.2112682     -0.0049471512   4.8023214      0.0031963449 
     38900   3.219396      -0.007081062    4.8123547      0.0032029977 
     39000   3.2248652     -0.0054659143   4.8221573      0.0032090725 
     39100   3.2297675     -0.0026099055   4.832352       0.0032183261 
     39200   3.2403459     -0.008607827    4.8421899      0.0032273738 
     39300   3.2444741     -0.004561795    4.8524159      0.0032300157 
     39400   3.2508655     -0.0041307537   4.8624148      0.0032383073 
     39500   3.2572862     -0.003713045    4.8724444      0.00324943   
     39600   3.2648358     -0.0051456651   4.8823135      0.0032509309 
     39700   3.2732511     -0.0077114223   4.8923454      0.0032553545 
     39800   3.2792734     -0.0066976973   4.9023745      0.0032711348 
     39900   3.2851444     -0.0055137086   4.9123475      0.0032689418 
     40000   3.2874363      0.00084834031  4.9221405      0.0033098746 
     40100   3.2999915     -0.0078350926   4.9322522      0.003283603  
     40200   3.3051189     -0.005380638    4.9423824      0.003291609  
     40300   3.3114424     -0.0050909488   4.9521383      0.0032999343 
     40400   3.3218465     -0.010750922    4.9620533      0.003304193  
     40500   3.3274092     -0.009111607    4.9720199      0.0033116641 
     40600   3.3320808     -0.0059728988   4.982152       0.0033182815 
     40700   3.3371055     -0.0035217784   4.9921251      0.0033708075 
     40800   3.342877      -0.0017084805   5.0025785      0.0033329809 
     40900   3.3427458      0.0082593305   5.0123498      0.00341774   
     41000   3.3577906     -0.0041724065   5.0224401      0.0033558918 
     41100   3.3625868     -0.0010973789   5.0326951      0.0033661541 
     41200   3.3706757     -0.0033882197   5.0425133      0.0033589624 
     41300   3.3768336     -0.0025765644   5.0525433      0.0033655338 
     41400   3.3838286     -0.0032128059   5.0623786      0.0033714191 
     41500   3.3913769     -0.0044795624   5.0724117      0.0033789964 
     41600   3.3982539     -0.0049016795   5.0822844      0.0033847049 
     41700   3.4054474     -0.0056986135   5.0922561      0.0033925853 
     41800   3.4120933     -0.0056220382   5.1022816      0.0033981637 
     41900   3.4136158      0.0021298008   5.1123127      0.0034565815 
     42000   3.4221856     -0.00068908301  5.1223227      0.0034590942 
     42100   3.4331211     -0.006970841    5.1324114      0.0034253764 
     42200   3.4395486     -0.0066897669   5.1423144      0.0034249145 
     42300   3.4428787     -0.001803723    5.1521856      0.0034324531 
     42400   3.4531019     -0.0069783695   5.1623152      0.003440976  
     42500   3.4572466     -0.0030847031   5.1724135      0.0034445778 
     42600   3.4656656     -0.0057852696   5.1823161      0.003449902  
     42700   3.4733377     -0.0073717849   5.1922147      0.003472689  
     42800   3.4776881     -0.0037861312   5.202313       0.0034644419 
     42900   3.4842075     -0.003472707    5.2123859      0.0034979425 
     43000   3.4909638     -0.0035263475   5.2224465      0.0034777822 
     43100   3.4971225     -0.0027812289   5.2324111      0.003485678  
     43200   3.4991536      0.0039015238   5.2421345      0.0035933948 
     43300   3.5120058     -0.0052598122   5.2522129      0.0034996851 
     43400   3.5204804     -0.0078503517   5.2623088      0.0035050986 
     43500   3.5231205     -0.0016405612   5.2724708      0.0035128955 
     43600   3.5305327     -0.0026683124   5.2825391      0.0035308487 
     43700   3.5381646     -0.0042277545   5.2924046      0.0035289493 
     43800   3.543903      -0.0029463398   5.3022765      0.0035312861 
     43900   3.5514238     -0.0040790659   5.3124023      0.0035390805 
     44000   3.5562097     -0.0010154127   5.3226305      0.0035472213 
     44100   3.5660974     -0.0060786303   5.3323692      0.003549898  
     44200   3.5726266     -0.0057545861   5.3424675      0.0035560726 
     44300   3.578673      -0.0049038013   5.3523696      0.0035642683 
     44400   3.5847993     -0.0040747764   5.3623698      0.003570405  
     44500   3.59451       -0.00862407     5.3723575      0.0035943328 
     44600   3.6012227     -0.0087965183   5.3822338      0.0035843676 
     44700   3.603782      -0.002783061    5.3920786      0.003612587  
     44800   3.6117177     -0.0044451623   5.4022963      0.0036022936 
     44900   3.6198892     -0.0066573363   5.4123168      0.0036088559 
     45000   3.6248634     -0.0039617827   5.4224588      0.003610767  
     45100   3.6265098      0.0032846047   5.4321697      0.0036775927 
     45200   3.6369126     -0.0020028585   5.4424554      0.0036258799 
     45300   3.6445928     -0.0035427017   5.4524127      0.0036518201 
     45400   3.6521474     -0.0049407778   5.4623238      0.0036483838 
     45500   3.6590744     -0.0053759113   5.4722585      0.0036445205 
     45600   3.6700183     -0.011854731    5.4821627      0.0036511606 
     45700   3.674857      -0.0092264679   5.4920345      0.0036695416 
     45800   3.6777464     -0.0034072935   5.5021791      0.003730707  
     45900   3.6844093     -0.0031396956   5.512421       0.0036724091 
     46000   3.6925151     -0.0054347751   5.5222604      0.003676892  
     46100   3.6982954     -0.0040198331   5.5323283      0.0036835087 
     46200   3.7082856     -0.0091238407   5.5421798      0.0037019299 
     46300   3.7113519     -0.0037810416   5.5521128      0.0037316559 
     46400   3.7210894     -0.0083832481   5.5620876      0.0037051396 
     46500   3.7263078     -0.0059936959   5.5722891      0.0037103193 
     46600   3.7317536     -0.0039819075   5.5824532      0.0037175924 
     46700   3.7363903     -0.00076127503  5.592615       0.0037274374 
     46800   3.743128      -0.00087999498  5.6025826      0.0037339177 
     46900   3.7502397     -0.0015914333   5.6125174      0.0037397027 
     47000   3.760005      -0.0063121517   5.6224153      0.003745522  
     47100   3.7675227     -0.007827108    5.6321544      0.0037518549 
     47200   3.773372      -0.006457181    5.6422807      0.0037696573 
     47300   3.7788394     -0.0046970962   5.6522255      0.0037630675 
     47400   3.7845957     -0.003149812    5.66239        0.0037716497 
     47500   3.7917203     -0.0038144976   5.6723908      0.0038006339 
     47600   3.798251      -0.0036168224   5.682365       0.0037840543 
     47700   3.8052815     -0.0041451347   5.6923612      0.003790208  
     47800   3.8118948     -0.0040142312   5.7023922      0.0037990463 
     47900   3.8095124      0.0094952461   5.7123354      0.0038748362 
     48000   3.8239201     -0.0019797013   5.7224286      0.0038125457 
     48100   3.8328047     -0.0055708649   5.7321377      0.0038347265 
     48200   3.8322671      0.0048571643   5.7417611      0.0038843614 
     48300   3.8470499     -0.0070032611   5.7520304      0.0038327202 
     48400   3.8536343     -0.0066576307   5.7622329      0.003834901  
     48500   3.8622174     -0.0095719244   5.7721675      0.0038476711 
     48600   3.8659156     -0.0050502202   5.7822254      0.003854353  
     48700   3.8720665     -0.0041265837   5.7923569      0.003864397  
     48800   3.880083      -0.0061981395   5.802286       0.0038900712 
     48900   3.8844746     -0.0026040926   5.8124544      0.0038723095 
     49000   3.8913781     -0.0029359348   5.8224571      0.003878662  
     49100   3.9000673     -0.0059789931   5.8324218      0.003886892  
     49200   3.9082787     -0.0083676837   5.8423255      0.0038891508 
     49300   3.9110349     -0.0023949126   5.8524244      0.0038986285 
     49400   3.9225202     -0.009847673    5.8621651      0.0039026209 
     49500   3.9256962     -0.0044043216   5.8723629      0.0039100904 
     49600   3.9332453     -0.0058486327   5.8822196      0.0039357916 
     49700   3.9423387     -0.0094216857   5.8922593      0.0039386944 
     49800   3.947154      -0.0066595222   5.90223        0.0039494905 
     49900   3.9532335     -0.0058550461   5.9121356      0.0039388133 
     50000   3.9560664     -7.4453825e-06  5.922224       0.0039821802 
     50100   3.9678072     -0.007629311    5.932178       0.0039745177 
     50200   3.9716907     -0.0029896119   5.9426313      0.0039663297 
     50300   3.978038      -0.0029808052   5.9521421      0.0039645769 
     50400   3.9848301     -0.003083511    5.9622072      0.0039713301 
     50500   3.9951512     -0.008630305    5.972111       0.0039741067 
     50600   3.9992124     -0.0046008477   5.9822201      0.0040688573 
     50700   4.0041798     -0.0020477841   5.9922093      0.0039921925 
     50800   4.011644      -0.0032011901   6.0022298      0.0040282086 
     50900   4.021759      -0.0084761864   6.0120971      0.0040215916 
     51000   4.0273531     -0.0067419085   6.0222057      0.0040085475 
     51100   4.0368597     -0.01110679     6.0320722      0.0040190001 
     51200   4.0411837     -0.0075820816   6.0420699      0.0040625622 
     51300   4.0485837     -0.008434578    6.0522952      0.0040305374 
     51400   4.0538387     -0.0063657558   6.0622308      0.0040361559 
     51500   4.0586434     -0.0035950251   6.0721941      0.0040437433 
     51600   4.0685132     -0.0081780822   6.0823861      0.0040532105 
     51700   4.0731704     -0.0052719809   6.0922641      0.0040687399 
     51800   4.0801551     -0.0057945416   6.1021976      0.0040631686 
     51900   4.089615      -0.0098228708   6.1123307      0.0040675843 
     52000   4.0949209     -0.0076692021   6.1224273      0.0040820404 
     52100   4.0989033     -0.0035647013   6.1324935      0.0040846659 
     52200   4.1055077     -0.0035812798   6.1423637      0.0040926274 
     52300   4.1126727     -0.004341248    6.1523297      0.0040977378 
     52400   4.1189283     -0.0036397921   6.1623959      0.0041051834 
     52500   4.1260404     -0.0042498802   6.1724325      0.0041321332 
     52600   4.1332645     -0.0049974053   6.1824996      0.0041222443 
     52700   4.1409814     -0.0067149422   6.1923343      0.0041226813 
     52800   4.1445952     -0.0021849846   6.202274       0.0041618575 
     52900   4.1558899     -0.0093064709   6.2120607      0.004159122  
     53000   4.160705      -0.0064333246   6.222142       0.0041531353 
     53100   4.169137      -0.008999785    6.2321983      0.0041524464 
     53200   4.1674542      0.0036734832   6.2423524      0.0042043192 
     53300   4.1805162     -0.0059239062   6.2523088      0.0041637784 
     53400   4.1875037     -0.0062846405   6.2624084      0.004170459  
     53500   4.1911749     -0.0018168199   6.272372       0.0041792749 
     53600   4.1980356     -0.0018931871   6.2825661      0.0041860788 
     53700   4.2007291      0.0040051452   6.2924966      0.0042518324 
     53800   4.2127079     -0.0040503253   6.3023734      0.0041970627 
     53900   4.2195207     -0.0042295346   6.312393       0.0042080095 
     54000   4.2177062      0.0084135056   6.3223196      0.0042790537 
     54100   4.2336324     -0.0056092994   6.3321383      0.0042221118 
     54200   4.2410058     -0.0068167116   6.341969       0.0042218702 
     54300   4.2478489     -0.0068989703   6.3521309      0.0042284281 
     54400   4.2532962     -0.0049254887   6.362259       0.0042375503 
     54500   4.2564788      0.00045319171  6.3724019      0.004277619  
     54600   4.265612      -0.0031985911   6.3824226      0.0042513509 
     54700   4.2736525     -0.0053332098   6.3923246      0.0042570343 
     54800   4.2820378     -0.0079665795   6.402244       0.0042792553 
     54900   4.285963      -0.0037425951   6.412344       0.0042879327 
     55000   4.2919112     -0.0025345974   6.4224565      0.0042996184 
     55100   4.2983527     -0.0023553897   6.4322785      0.004324852  
     55200   4.3054851     -0.0029855334   6.4423257      0.0042913072 
     55300   4.3147208     -0.006847401    6.4522896      0.0042945269 
     55400   4.3169688     -0.00013588487  6.4623664      0.0043626736 
     55500   4.3280228     -0.0067983851   6.4722518      0.0043092935 
     55600   4.3351309     -0.0073064144   6.4823845      0.0043160567 
     55700   4.3394941     -0.0038713938   6.4923512      0.0043247096 
     55800   4.3466963     -0.0048464231   6.502158       0.0043296    
     55900   4.3568288     -0.010039458    6.5121333      0.0043424805 
     56000   4.3612999     -0.0067744612   6.5220915      0.004340909  
     56100   4.3684429     -0.0072406064   6.5323184      0.0043492073 
     56200   4.3735336     -0.0047697029   6.54241        0.0043579571 
     56300   4.382748      -0.0088609036   6.5521128      0.0043688718 
     56400   4.3905642     -0.010560152    6.5621144      0.0043899154 
     56500   4.3931543     -0.0042646158   6.5722874      0.0043765113 
     56600   4.4011187     -0.0062516201   6.582223       0.0043849592 
     56700   4.4099085     -0.0095741153   6.5920589      0.0043895806 
     56800   4.4145574     -0.0061703542   6.6024221      0.0043968203 
     56900   4.4161167      0.0011924565   6.6121192      0.0044557781 
     57000   4.4284088     -0.0069229117   6.622405       0.0044237418 
     57100   4.4333419     -0.0044355587   6.6322772      0.0044335197 
     57200   4.4409885     -0.0061354956   6.6420243      0.0044449957 
     57300   4.4506177     -0.010288266    6.6522865      0.0044373768 
     57400   4.4541289     -0.0055863865   6.6622446      0.0044447143 
     57500   4.4622439     -0.0079532367   6.6720259      0.0044447099 
     57600   4.467916      -0.006155902    6.6823143      0.0044518817 
     57700   4.4740852     -0.0052224376   6.6924831      0.0044657128 
     57800   4.4805314     -0.004907189    6.7024483      0.0044647001 
     57900   4.4886521     -0.0072896652   6.7122225      0.0044706283 
     58000   4.4959253     -0.0083731582   6.722027       0.0044871368 
     58100   4.4997162     -0.0038173595   6.7322577      0.0044835782 
     58200   4.5094521     -0.0084618394   6.742188       0.0044936611 
     58300   4.512953      -0.0035989921   6.7522916      0.0045082351 
     58400   4.523955      -0.01000635     6.7623543      0.0045051181 
     58500   4.528682      -0.0072110883   6.7722259      0.0045132625 
     58600   4.5328188     -0.0033339049   6.7822959      0.0045477282 
     58700   4.540552      -0.0049518294   6.7922545      0.0045308025 
     58800   4.5503221     -0.0096409872   6.8021911      0.0045313705 
     58900   4.5531396     -0.0037594331   6.8122906      0.0045477825 
     59000   4.5586464     -0.00177758     6.822516       0.0045462214 
     59100   4.5666264     -0.003751535    6.8324882      0.0045522414 
     59200   4.5727154     -0.0027354414   6.8426196      0.0045662238 
     59300   4.5789234     -0.0023281502   6.8523202      0.0045866052 
     59400   4.5844607     -0.00060008274  6.8623376      0.0046315265 
     59500   4.5944113     -0.005381066    6.8724526      0.0045802162 
     59600   4.5997329     -0.0033785518   6.8824216      0.0045852198 
     59700   4.608496      -0.0065916289   6.8923269      0.0045930529 
     59800   4.6175786     -0.010322232    6.902193       0.0045946507 
     59900   4.6242115     -0.010312894    6.9121317      0.0046026033 
     60000   4.6282577     -0.0062857273   6.9222161      0.0046265476 
     60100   4.6330935     -0.0032509928   6.9324899      0.0046186995 
     60200   4.6395545     -0.0028561185   6.942557       0.004625063  
     60300   4.6474012     -0.0048278461   6.9523318      0.0046296086 
     60400   4.6541338     -0.0049077968   6.9623305      0.004638658  
     60500   4.6607714     -0.0048738294   6.9723009      0.0046440327 
     60600   4.6706107     -0.0095431182   6.9823611      0.0046604162 
     60700   4.6761105     -0.0079921444   6.9921453      0.0046665235 
     60800   4.6822787     -0.0071662262   7.0022049      0.004664746  
     60900   4.6868646     -0.0041272393   7.0121091      0.0046701123 
     61000   4.6921842     -0.001756146    7.0224435      0.0047090646 
     61100   4.6929214      0.0070748264   7.0323782      0.0047601951 
     61200   4.7063548     -0.0031720475   7.0422411      0.0046910138 
     61300   4.7132674     -0.0033946102   7.0523668      0.0047012487 
     61400   4.723532      -0.0089583109   7.0621691      0.0047004717 
     61500   4.7239299      0.00036112069  7.0720841      0.0047627875 
     61600   4.7351658     -0.0062426838   7.0823006      0.0047175561 
     61700   4.7384634     -0.0010681168   7.0924116      0.0047509214 
     61800   4.7476832     -0.0048535815   7.1024281      0.004732545  
     61900   4.7537613     -0.0041163322   7.1122643      0.0047387957 
     62000   4.7575011      0.00036005915  7.1223392      0.0047746097 
     62100   4.7697598     -0.0082227979   7.1321076      0.004769198  
     62200   4.7710756     -0.00027812656  7.142022       0.0047927571 
     62300   4.7723865      0.0078005332   7.1520632      0.0048469363 
     62400   4.7876881     -0.0049871372   7.162182       0.0048085365 
     62500   4.7953381     -0.0063511804   7.1722699      0.0047819696 
     62600   4.8014893     -0.005365981    7.1824635      0.0047875519 
     62700   4.8054376     -0.0015100452   7.1922301      0.0048297034 
     62800   4.8162989     -0.0077088168   7.2022907      0.0048085307 
     62900   4.820034      -0.0032296301   7.2123613      0.0048042713 
     63000   4.8277414     -0.0047993116   7.2223295      0.0048097251 
     63100   4.8359215     -0.0072118191   7.2321627      0.0048180148 
     63200   4.8428811     -0.0076030909   7.2421899      0.0048235587 
     63300   4.8404691      0.0060658351   7.2522481      0.0048884136 
     63400   4.8526315     -0.0018695385   7.2625198      0.0048496776 
     63500   4.8595638     -0.0023158868   7.2724511      0.0048735199 
     63600   4.8698451     -0.0080682179   7.2820899      0.0048663236 
     63700   4.8740334     -0.004269714    7.2921583      0.0048571049 
     63800   4.8808392     -0.0043413262   7.302275       0.0048699882 
     63900   4.8872751     -0.0038633109   7.3123875      0.0048893423 
     64000   4.8948611     -0.0051890788   7.322418       0.0048865854 
     64100   4.8994146     -0.0020077014   7.332416       0.0048857449 
     64200   4.8920895      0.018821911    7.3422799      0.005004233  
     64300   4.9145591     -0.0047459589   7.352349       0.0048966227 
     64400   4.9172227      0.0011058147   7.3621881      0.0049396964 
     64500   4.9286407     -0.0060222387   7.3721528      0.004910486  
     64600   4.9347094     -0.0052496919   7.3820103      0.0049645944 
     64700   4.9403127     -0.0033518884   7.3922963      0.0049494934 
     64800   4.9495686     -0.0071906597   7.4023136      0.0049295041 
     64900   4.9556027     -0.0061603341   7.4123769      0.0049428307 
     65000   4.9604999     -0.0035525857   7.4223158      0.004944119  
     65100   4.9693829     -0.0069791995   7.432187       0.0049529817 
     65200   4.9702461      0.0018749536   7.4423333      0.0049910341 
     65300   4.980863      -0.0039994555   7.4523525      0.0049650046 
     65400   4.987738      -0.0042713555   7.4623724      0.0049914703 
     65500   4.9931137     -0.0023395058   7.4723517      0.0049787601 
     65600   5.0030457     -0.0073748341   7.4821846      0.0049850338 
     65700   5.0078546     -0.0046671591   7.4920912      0.0049895714 
     65800   5.0147454     -0.0045583699   7.5025155      0.0050000055 
     65900   5.0197345     -0.0019946579   7.5125479      0.0050061057 
     66000   5.0286525     -0.0056722271   7.5222206      0.0050088029 
     66100   5.0353678     -0.0057589935   7.5321866      0.0050195327 
     66200   5.0434236     -0.0077224328   7.5422827      0.0050286829 
     66300   5.0462186     -0.0018717511   7.5523175      0.0050326104 
     66400   5.0531709     -0.0021467239   7.56245        0.0050391686 
     66500   5.0613138     -0.0044994785   7.5722873      0.0050462842 
     66600   5.0667881     -0.002696025    7.5822858      0.0050653838 
     66700   5.0749859     -0.0049364034   7.5923175      0.0050735084 
     66800   5.0831528     -0.0073472357   7.6021325      0.0050676915 
     66900   5.0859442     -0.0013409771   7.6123175      0.0050950429 
     67000   5.093598      -0.0027010386   7.6224151      0.0050783578 
     67100   5.099715      -0.0018287015   7.6324447      0.0050860596 
     67200   5.1078931     -0.0041606229   7.6423554      0.0051001186 
     67300   5.1135088     -0.0026889915   7.6522337      0.0051236018 
     67400   5.1237422     -0.0081532818   7.6620887      0.005105258  
     67500   5.1300322     -0.0072988185   7.6723594      0.0051158003 
     67600   5.1355434     -0.0054480698   7.6824604      0.0051353482 
     67700   5.1389747     -0.00056837128  7.6924768      0.0051620079 
     67800   5.1485596     -0.0050492817   7.7023444      0.0051504813 
     67900   5.1551365     -0.004965812    7.7122735      0.0051623408 
     68000   5.1622018     -0.0056121312   7.7222039      0.0051440668 
     68100   5.1664809     -0.0017223929   7.7324996      0.0051528273 
     68200   5.1771692     -0.007948118    7.7422741      0.0051555276 
     68300   5.1817967     -0.0047466008   7.7524031      0.0051664947 
     68400   5.1869435     -0.0024151092   7.7624393      0.0051723803 
     68500   5.196411      -0.0065878368   7.7724395      0.0051827932 
     68600   5.203351      -0.0072064683   7.78221        0.005190561  
     68700   5.2108745     -0.0084349383   7.7922442      0.0052047543 
     68800   5.2139942     -0.0029746312   7.8023746      0.0051979133 
     68900   5.2246915     -0.0092775382   7.8120856      0.005205559  
     69000   5.2284106     -0.0047957312   7.8221349      0.0052515521 
     69100   5.2352394     -0.004938615    7.8322148      0.0052167981 
     69200   5.2416256     -0.0043337311   7.8423798      0.0052270315 
     69300   5.2493816     -0.0059104405   7.8524138      0.0052304715 
     69400   5.2536013     -0.0021948517   7.8624463      0.0052391186 
     69500   5.2623482     -0.0053268652   7.8724083      0.0052443255 
     69600   5.2693903     -0.0057783828   7.882499       0.0052685172 
     69700   5.2745195     -0.0036427441   7.892313       0.0052580049 
     69800   5.2801992     -0.0020713218   7.9023869      0.0052811504 
     69900   5.2798756      0.0081667497   7.9121405      0.0053393896 
     70000   5.2804787      0.01680359     7.9216802      0.0053886189 
     70100   5.299844      -0.001389948    7.9324766      0.0052865658 
     70200   5.3087209     -0.0046854119   7.9424697      0.0052949799 
     70300   5.3155066     -0.0053098643   7.9520035      0.005327386  
     70400   5.3230615     -0.0062841554   7.9623388      0.0053038234 
     70500   5.3279974     -0.0038370032   7.9721752      0.0053109626 
     70600   5.3378634     -0.008617639    7.9821639      0.0053175719 
     70700   5.3439299     -0.0077189262   7.9921442      0.0053319966 
     70800   5.3465686     -0.0014452159   8.0023679      0.0053330714 
     70900   5.3538115     -0.0020556299   8.0126002      0.0053394599 
     71000   5.3638632     -0.007544485    8.0221588      0.0053521813 
     71100   5.3676433     -0.0030914107   8.0322706      0.0053519343 
     71200   5.3771944     -0.0072938342   8.0423662      0.0053599232 
     71300   5.3853785     -0.0099686019   8.0519431      0.0053588374 
     71400   5.3876548     -0.0030155625   8.0623036      0.0053715419 
     71500   5.3980349     -0.0084944132   8.0723638      0.005376495  
     71600   5.4015808     -0.0037989181   8.0823675      0.0053881881 
     71700   5.384441       0.032130057    8.0926383      0.0055664193 
     71800   5.4152977     -0.0043013731   8.1023992      0.0053975847 
     71900   5.422649      -0.0055367359   8.1121688      0.0054346074 
     72000   5.4267955     -0.0014834613   8.1224294      0.0054130365 
     72100   5.4352964     -0.0042553371   8.1323834      0.0054327409 
     72200   5.44099       -0.0028682653   8.1422938      0.0054246868 
     72300   5.4511205     -0.0081007509   8.1522266      0.0054327438 
     72400   5.4573491     -0.0074875554   8.1621641      0.0054462355 
     72500   5.4631856     -0.0061908915   8.172198       0.0054413652 
     72600   5.4629823      0.0041464177   8.1822309      0.0055262543 
     72700   5.4764239     -0.0059415567   8.192265       0.005454981  
     72800   5.4775348      0.0024686063   8.2023382      0.005509855  
     72900   5.4932673     -0.011009616    8.2124115      0.0054796473 
     73000   5.4965927     -0.0060784774   8.2223208      0.0054754475 
     73100   5.5005089     -0.0019798009   8.232282       0.0055022401 
     73200   5.5088086     -0.0045125743   8.2421739      0.0055055212 
     73300   5.514703      -0.0032700499   8.2522403      0.0055108726 
     73400   5.5227664     -0.0052621617   8.2623192      0.0055040275 
     73500   5.5264938     -0.00061155194  8.2725497      0.0055142351 
     73600   5.5262934      0.0096162236   8.2824775      0.0055873663 
     73700   5.5435805     -0.0062896039   8.2924504      0.0055296126 
     73800   5.5496705     -0.005572174    8.3022846      0.0055298073 
     73900   5.5546553     -0.002902038    8.312417       0.0055384244 
     74000   5.5608734     -0.0021777359   8.3224497      0.005545689  
     74100   5.5706262     -0.0067796608   8.3324478      0.0055573895 
     74200   5.5767778     -0.0061497631   8.3422866      0.0055558788 
     74300   5.582761      -0.005170055    8.3522232      0.0055646941 
     74400   5.5895499     -0.0053955579   8.3621606      0.0055704371 
     74500   5.5962459     -0.0051601071   8.37242        0.0055784906 
     74600   5.6007506     -0.0020193806   8.3823043      0.005607902  
     74700   5.6089582     -0.0043158731   8.3922946      0.0055912125 
     74800   5.6163585     -0.0055617403   8.4021269      0.0055959082 
     74900   5.6234349     -0.0061285647   8.4121534      0.0056034635 
     75000   5.632711      -0.0099161638   8.4222522      0.0056292904 
     75100   5.6385549     -0.0086965296   8.4322202      0.0056160182 
     75200   5.6436444     -0.0063180503   8.4422177      0.005627167  
     75300   5.6513702     -0.0079903791   8.4521108      0.0056370433 
     75400   5.6580905     -0.0080770833   8.4620844      0.0056353377 
     75500   5.663082      -0.0054448319   8.472189       0.0056429286 
     75600   5.6693624     -0.0046498063   8.4823858      0.0056512741 
     75700   5.6702797      0.0037117544   8.4921205      0.0057014629 
     75800   5.6822804     -0.004084045    8.5022897      0.0056643548 
     75900   5.6911962     -0.0075617012   8.512159       0.0056672251 
     76000   5.696889      -0.0058982455   8.5223445      0.005690667  
     76100   5.7048773     -0.008027318    8.532174       0.0057299414 
     76200   5.7119326     -0.0083441746   8.5424189      0.0056905302 
     76300   5.7146766     -0.0025539189   8.5523169      0.0056984329 
     76400   5.7234086     -0.0057926388   8.56215        0.0057050849 
     76500   5.7260963      0.00015842697  8.5721245      0.0057401408 
     76600   5.7374599     -0.0067009009   8.5822766      0.0057175687 
     76700   5.7440497     -0.0064707627   8.5923717      0.0057237177 
     76800   5.7498761     -0.0052847219   8.6022798      0.0057478732 
     76900   5.757985      -0.0074231335   8.6122804      0.0057390788 
     77000   5.7626674     -0.0045313199   8.6221818      0.0057475718 
     77100   5.7675669     -0.0018760044   8.6321716      0.0057920948 
     77200   5.7692128      0.0057888845   8.6423005      0.0058231638 
     77300   5.7827465     -0.0043930982   8.6523784      0.0057647377 
     77400   5.7888964     -0.0034691173   8.6625087      0.0057756202 
     77500   5.7954799     -0.0032920422   8.6725414      0.0057788915 
     77600   5.8040925     -0.00635324     8.6823733      0.0057973281 
     77700   5.8093348     -0.0042577905   8.6923163      0.0057904812 
     77800   5.8166301     -0.0053036451   8.7021916      0.005833848  
     77900   5.8213889     -0.0023337647   8.7122854      0.0058052624 
     78000   5.8309195     -0.0067640358   8.7221225      0.0058090757 
     78100   5.8361528     -0.0044716483   8.732249       0.0058434409 
     78200   5.8441588     -0.0064254354   8.7422803      0.0058347617 
     78300   5.8454366      0.0014195657   8.7520382      0.0059151692 
     78400   5.8375011      0.02361089     8.76235        0.0059636023 
     78500   5.8643227     -0.0066342617   8.7722569      0.005843878  
     78600   5.8700701     -0.0049683483   8.7825266      0.005853205  
     78700   5.8757368     -0.0036754083   8.7923025      0.0058577022 
     78800   5.8841424     -0.0063261377   8.802235       0.0058803356 
     78900   5.8886422     -0.0029023142   8.8123951      0.0058836489 
     79000   5.8971318     -0.005542898    8.8224633      0.0058848696 
     79100   5.9060209     -0.0092791653   8.8320342      0.0058813625 
     79200   5.9098077     -0.0047814928   8.8422006      0.0058931937 
     79300   5.9157066     -0.003427951    8.8523848      0.0059083585 
     79400   5.9228517     -0.0043943384   8.8621147      0.0059242898 
     79500   5.9309601     -0.0066026482   8.8720446      0.0059201363 
     79600   5.937461      -0.0061714836   8.8822076      0.0059232168 
     79700   5.9436824     -0.0054195173   8.8922731      0.0059334482 
     79800   5.9501287     -0.0047803528   8.9025623      0.00593162   
     79900   5.9553237     -0.0028059189   8.9123136      0.0059457118 
     80000   5.9608595     -0.00080426329  8.9226024      0.0059473618 
     80100   5.9719141     -0.007616919    8.9323385      0.0059596263 
     80200   5.9771296     -0.0055556382   8.9422074      0.0059552993 
     80300   5.9828482     -0.0038241739   8.9524996      0.0059642816 
     80400   5.9908208     -0.0058721761   8.9623866      0.0059787078 
     80500   5.9995131     -0.0090687028   8.9722024      0.0059837609 
     80600   6.0033891     -0.0046402331   8.9824333      0.0059832412 
     80700   6.0088055     -0.0029099908   8.9922718      0.0059913965 
     80800   6.0186288     -0.0079428246   9.0019445      0.006000227  
     80900   6.0221067     -0.0028225421   9.0122713      0.0060056241 
     81000   6.0327088     -0.0087961227   9.022169       0.0060142169 
     81100   6.0327713      0.00094531274  9.0320039      0.0060531405 
     81200   6.0451331     -0.0072898241   9.0422744      0.0060302283 
     81300   6.0520068     -0.0078440311   9.0520102      0.0060414783 
     81400   6.0593523     -0.0086739718   9.0621765      0.0060373931 
     81500   6.0655936     -0.0080204361   9.0721732      0.0060586513 
     81600   6.0681955     -0.0016524739   9.0824361      0.0060528924 
     81700   6.0767718     -0.0044908016   9.0924365      0.0060602117 
     81800   6.0855058     -0.0079196619   9.1020825      0.0060917684 
     81900   6.0939682     -0.010598591    9.1120718      0.0060678848 
     82000   6.094637      -0.00117353     9.1224981      0.0060801674 
     82100   6.1052523     -0.0072861667   9.1322765      0.0060869014 
     82200   6.108058      -0.0015986064   9.1421643      0.0060927117 
     82300   6.1162764     -0.0037031317   9.1523626      0.0060975104 
     82400   6.1229904     -0.0038871225   9.1622295      0.0061054078 
     82500   6.1307549     -0.0055409863   9.1721991      0.006109255  
     82600   6.1373838     -0.0053371431   9.1823264      0.0061174108 
     82700   6.1420252     -0.0024130558   9.1921987      0.006153425  
     82800   6.1506933     -0.0053525011   9.2022354      0.0061293871 
     82900   6.1562018     -0.003596694    9.2122374      0.0061578781 
     83000   6.1627201     -0.0035766098   9.2220154      0.0061737487 
     83100   6.1694603     -0.0034333321   9.2322488      0.0061755207 
     83200   6.1767528     -0.0043044715   9.2422944      0.0061573276 
     83300   6.1781372      0.003393033    9.2520644      0.0062317871 
     83400   6.1889716     -0.002529657    9.2623608      0.0061841388 
     83500   6.1970614     -0.0047000943   9.2723008      0.0061944153 
     83600   6.2092766     -0.013353869    9.2819332      0.0061782585 
     83700   6.2098328     -0.0037340337   9.2923856      0.0061966338 
     83800   6.217689      -0.0056598161   9.3022207      0.0061964515 
     83900   6.2009219      0.0296031      9.3123832      0.0064008673 
     84000   6.230714      -0.004955572    9.3224233      0.0062095951 
     84100   6.2361906     -0.003218951    9.3323584      0.0062181103 
     84200   6.2453692     -0.0070884861   9.3422291      0.0062361729 
     84300   6.2503276     -0.0044751528   9.3522653      0.0062431554 
     84400   6.2584264     -0.0065354062   9.3623289      0.006245948  
     84500   6.2653862     -0.0071893832   9.3720938      0.0062446265 
     84600   6.2726316     -0.0080429794   9.3820865      0.0062531691 
     84700   6.2780056     -0.0061421631   9.3920323      0.0062550187 
     84800   6.2857221     -0.0076589927   9.402067       0.0062631921 
     84900   6.289683      -0.0033634685   9.4122919      0.0062712101 
     85000   6.2970948     -0.0046072758   9.4221437      0.0062989108 
     85100   6.3034514     -0.0039841921   9.4322825      0.0062869078 
     85200   6.3106497     -0.0050836568   9.441959       0.0063043135 
     85300   6.3207631     -0.0099104049   9.452272       0.0063103477 
     85400   6.3205151      0.0003804278   9.4621915      0.006337049  
     85500   6.3304801     -0.0043883959   9.4723403      0.0063192797 
     85600   6.3401533     -0.0091586176   9.4820508      0.0063296785 
     85700   6.3449196     -0.006168766    9.4921759      0.0063289432 
     85800   6.3539447     -0.0096740597   9.5021811      0.0063292543 
     85900   6.3600818     -0.0090207743   9.5120217      0.0063437835 
     86000   6.3677935     -0.010568724    9.5220181      0.0063434229 
     86100   6.3694497     -0.0029771087   9.532089       0.0063510807 
     86200   6.3779264     -0.0055034828   9.5422524      0.0063671302 
     86300   6.3830557     -0.0030521915   9.5523822      0.0063649487 
     86400   6.3921714     -0.0068315121   9.5622491      0.0063826021 
     86500   6.3992399     -0.0073522063   9.5723099      0.0063961593 
     86600   6.4052257     -0.006374824    9.582248       0.0063844168 
     86700   6.4109788     -0.0049270327   9.5923083      0.006390075  
     86800   6.4171586     -0.004080765    9.6024057      0.0063972752 
     86900   6.415145       0.0088518614   9.612324       0.0064755739 
     87000   6.4315477     -0.005833034    9.6221939      0.0064203902 
     87100   6.4375795     -0.0047397736   9.6323167      0.0064216312 
     87200   6.4435422     -0.0038571268   9.6421255      0.0064436233 
     87300   6.4513971     -0.0053963802   9.6523451      0.0064337768 
     87400   6.4595027     -0.0077589559   9.6621167      0.0064450796 
     87500   6.466246      -0.00786899     9.6721013      0.0064669092 
     87600   6.4675523      0.00031411354  9.6822399      0.0064968334 
     87700   6.4779505     -0.005038367    9.6924535      0.0064681021 
     87800   6.482667      -0.0021422934   9.7024102      0.0064656667 
     87900   6.4907478     -0.004459044    9.7121904      0.0064702802 
     88000   6.4986121     -0.0061373753   9.722285       0.0064750806 
     88100   6.5050073     -0.0059142075   9.7320818      0.0064856051 
     88200   6.5129988     -0.0078059492   9.7421532      0.0064862873 
     88300   6.5152158     -0.00099892102  9.7522791      0.0065277538 
     88400   6.5238857     -0.0039818397   9.762275       0.0065142147 
     88500   6.5314826     -0.0053448465   9.7722846      0.0065112566 
     88600   6.5376862     -0.0047303452   9.7821859      0.0065199405 
     88700   6.5370276      0.0059842479   9.7919146      0.0065772772 
     88800   6.5488723     -0.0015099083   9.8021519      0.0065547723 
     88900   6.5586106     -0.0060002319   9.8122398      0.0065464132 
     89000   6.564178      -0.0043912995   9.8221831      0.0065431607 
     89100   6.5704817     -0.0036928742   9.8323183      0.0065512233 
     89200   6.5753615     -0.00128459     9.8420315      0.0065845692 
     89300   6.5844986     -0.0048400213   9.8521544      0.0065806656 
     89400   6.591305      -0.0050918005   9.8620918      0.0065859896 
     89500   6.5973189     -0.0041331239   9.8720533      0.0065765042 
     89600   6.6059614     -0.007034817    9.8820894      0.0065984875 
     89700   6.6138217     -0.0088107506   9.8920804      0.0066218165 
     89800   6.6175084     -0.0042290243   9.9021811      0.0065973026 
     89900   6.6264806     -0.0077267688   9.9121147      0.0066021729 
     90000   6.6320583     -0.0058864321   9.9223049      0.0066117351 
     90100   6.6394488     -0.0071095838   9.9321453      0.0066205277 
     90200   6.6444019     -0.0046216688   9.942048       0.0066227173 
     90300   6.6500911     -0.0028811797   9.9523052      0.0066313989 
     90400   6.659174      -0.0065478604   9.9622357      0.0066369538 
     90500   6.6641658     -0.0039497321   9.9723064      0.0066442857 
     90600   6.6711718     -0.0047022863   9.982042       0.0066634593 
     90700   6.6762559     -0.0019882234   9.9923669      0.0066590783 
     90800   6.6830273     -0.0022495519   10.002242      0.0066653184 
     90900   6.6895356     -0.0017904925   10.012444      0.0066847744 
     91000   6.6890316      0.0089230472   10.022403      0.0067645522 
     91100   6.7054209     -0.0056672393   10.032348      0.0066838809 
     91200   6.7133347     -0.007771942    10.04209       0.0067037771 
     91300   6.7188166     -0.0058445164   10.052224      0.006718016  
     91400   6.725822      -0.0065989269   10.061957      0.0067042713 
     91500   6.7334439     -0.0077082777   10.072257      0.0067246603 
     91600   6.7414839     -0.009899303    10.082102      0.0067245397 
     91700   6.7439717     -0.0033998875   10.092326      0.0067280505 
     91800   6.7522917     -0.0059932638   10.102187      0.0067532838 
     91900   6.7564737     -0.0021478906   10.112293      0.0067388433 
     92000   6.7658686     -0.0061548215   10.122351      0.0067448359 
     92100   6.7704826     -0.0030260709   10.132386      0.0067524927 
     92200   6.7785898     -0.0051630803   10.142386      0.0067581849 
     92300   6.7837678     -0.0030735683   10.152227      0.0067643496 
     92400   6.787053       0.0020424868   10.162261      0.0068168445 
     92500   6.7905837      0.0067804744   10.172284      0.0068353317 
     92600   6.8047199     -0.0045982545   10.182067      0.0067830184 
     92700   6.8126527     -0.0064582386   10.192083      0.006808611  
     92800   6.8170301     -0.0028039603   10.20229       0.0067980618 
     92900   6.8244264     -0.0037779976   10.212388      0.0068042805 
     93000   6.830315      -0.0025257567   10.222456      0.0068120327 
     93100   6.840348      -0.0078683681   10.232133      0.006814885  
     93200   6.8407636      0.0014752118   10.242098      0.0068621113 
     93300   6.8517161     -0.0048441328   10.252175      0.0068612093 
     93400   6.8562209     -0.0013271993   10.262436      0.0068399194 
     93500   6.8652574     -0.0049538014   10.272337      0.006843582  
     93600   6.870037      -0.0018848761   10.282561      0.0068528337 
     93700   6.8789692     -0.0055809114   10.292236      0.0068563521 
     93800   6.8844138     -0.0039297572   10.302038      0.0069161515 
     93900   6.8924753     -0.0056658411   10.31237       0.0068690772 
     94000   6.8974002     -0.0031683818   10.32224       0.0068779963 
     94100   6.9050615     -0.0046770824   10.3322        0.006894013  
     94200   6.9115784     -0.0042095983   10.342423      0.0069125542 
     94300   6.9160301     -0.00083397465  10.352463      0.0069005757 
     94400   6.92362       -0.0022960978   10.362363      0.0069206173 
     94500   6.9343242     -0.0084684013   10.372215      0.0069215201 
     94600   6.9376255     -0.0033284266   10.382297      0.0069178855 
     94700   6.9450658     -0.0045301624   10.392233      0.006922945  
     94800   6.952393      -0.0054375823   10.402295      0.0069587897 
     94900   6.9591959     -0.0054923289   10.412424      0.0069401231 
     95000   6.963226      -0.0015285806   10.422421      0.0069463893 
     95100   6.9721336     -0.0049710668   10.432313      0.0069715262 
     95200   6.9778622     -0.003768962    10.442091      0.0069759009 
     95300   6.9840857     -0.0027839235   10.452392      0.0069649754 
     95400   6.987886       0.0014732994   10.462339      0.0070247406 
     95500   6.9973622     -0.0028574259   10.472194      0.0069782328 
     95600   7.004696      -0.0036694416   10.48236       0.0069843376 
     95700   7.0089761     -0.00051538944  10.491922      0.0070307177 
     95800   7.0227281     -0.010805813    10.502218      0.0070163982 
     95900   7.024549      -0.0034947524   10.512255      0.0070074002 
     96000   7.0316275     -0.0038881182   10.522458      0.0070112428 
     96100   7.0420646     -0.010178016    10.531793      0.0070205824 
     96200   7.0423072     -0.00036989919  10.541964      0.0070709204 
     96300   7.0542309     -0.0079800019   10.552204      0.0070534891 
     96400   7.0580212     -0.0034539835   10.562404      0.0070424449 
     96500   7.0638447     -0.0022856948   10.57229       0.0070817817 
     96600   7.0714837     -0.0034894338   10.582522      0.0070579977 
     96700   7.0773381     -0.0022478474   10.592527      0.0070595906 
     96800   7.0889259     -0.01011022     10.602012      0.0070816343 
     96900   7.0936368     -0.0069366445   10.612238      0.007068582  
     97000   7.097473      -0.0026032091   10.622314      0.0070942363 
     97100   7.1056858     -0.0050817173   10.63213       0.0071007953 
     97200   7.1132924     -0.0065396821   10.642059      0.007100688  
     97300   7.1195353     -0.0057189536   10.652225      0.0071026638 
     97400   7.1228373     -0.00047406837  10.662413      0.0071277533 
     97500   7.1311995     -0.0032286      10.672177      0.0071107552 
     97600   7.135037       0.0014054722   10.682556      0.0071467397 
     97700   7.1434432     -0.0012650855   10.692469      0.0071267155 
     97800   7.1520872     -0.0041723381   10.702502      0.0071307524 
     97900   7.1545037      0.0020562321   10.712348      0.0071925632 
     98000   7.1659759     -0.0050913376   10.722375      0.007142877  
     98100   7.1689965      0.00051241149  10.7325        0.0071788292 
     98200   7.1717313      0.0060856597   10.742167      0.0072385321 
     98300   7.1858093     -0.0049942975   10.752162      0.0071643968 
     98400   7.1947211     -0.0083636973   10.762134      0.0071773829 
     98500   7.1994489     -0.0052438195   10.772331      0.0071759556 
     98600   7.2047408     -0.0032655108   10.782231      0.0071843053 
     98700   7.2128076     -0.0051491717   10.792424      0.0071927541 
     98800   7.2179497     -0.0031384664   10.802132      0.00719751   
     98900   7.2256639     -0.0045643949   10.812254      0.0072043327 
     99000   7.2320255     -0.0040238522   10.822318      0.0072114272 
     99100   7.2390875     -0.0046803624   10.832234      0.0072219684 
     99200   7.2459478     -0.0049324384   10.842251      0.0072225066 
     99300   7.243551       0.0086338414   10.85223       0.0073089832 
     99400   7.2556093      0.00055371928  10.862201      0.0072732352 
     99500   7.2662031     -0.0053486638   10.872157      0.0072576542 
     99600   7.2703928     -0.0015084621   10.882269      0.0072775917 
     99700   7.2788662     -0.0042402316   10.892223      0.0072566796 
     99800   7.2803706      0.0036429505   10.902358      0.0073113083 
     99900   7.2940736     -0.0070937292   10.912134      0.0072728023 
    100000   7.2992221     -0.0046780212   10.922257      0.0072775038 
    100100   7.3054308     -0.0039692953   10.932261      0.0072840776 
    100200   7.3146841     -0.0077941508   10.942288      0.0072993129 
    100300   7.3137346      0.002969267    10.95163       0.0073504223 
    100400   7.3279135     -0.0077701855   10.962116      0.0073457552 
    100500   7.333774      -0.0065477137   10.972112      0.0073260794 
    100600   7.3389948     -0.0040159962   10.982459      0.0073180395 
    100700   7.3441263     -0.0016930372   10.992464      0.007326232  
    100800   7.3506176     -0.0014739542   11.002401      0.0073330809 
    100900   7.3606084     -0.0064939675   11.012337      0.0073359257 
    101000   7.366756      -0.0057260007   11.022308      0.0073416894 
    101100   7.3711025     -0.0021719765   11.032368      0.0073522624 
    101200   7.3825835     -0.0096372851   11.04209       0.0073665626 
    101300   7.38567       -0.0043406104   11.052007      0.0073627146 
    101400   7.3951567     -0.0082703971   11.062279      0.0073739317 
    101500   7.4017702     -0.0082625776   11.072187      0.0073829119 
    101600   7.4032733     -0.00054292563  11.082157      0.0074071268 
    101700   7.4089527      0.0010713762   11.092274      0.0074410563 
    101800   7.4184204     -0.0028143669   11.102561      0.0073987818 
    101900   7.428048      -0.0076054401   11.112182      0.0074088972 
    102000   7.4352255     -0.0084540334   11.122078      0.0074079593 
    102100   7.4449202     -0.013005895    11.13204       0.007414284  
    102200   7.4380037      0.0075406105   11.142232      0.0074861784 
    102300   7.4522647     -0.003753907    11.152286      0.0074518449 
    102400   7.4450546      0.017139867    11.162387      0.0075355706 
    102500   7.4663261     -0.0049733047   11.172117      0.007459752  
    102600   7.4732668     -0.005242988    11.182237      0.0074518794 
    102700   7.4801079     -0.0053837317   11.192338      0.007461819  
    102800   7.4870643     -0.0057904161   11.202345      0.0074753567 
    102900   7.4887621      0.0011216164   11.211798      0.0075057922 
    103000   7.4990231     -0.0036935923   11.222344      0.007482221  
    103100   7.5036963     -0.00058528071  11.232448      0.0074875292 
    103200   7.5121157     -0.0032899171   11.242347      0.0074919553 
    103300   7.5197681     -0.0048756194   11.252217      0.0074979795 
    103400   7.5174502      0.0088773067   11.2625        0.0075804514 
    103500   7.5263947      0.0052098834   11.272223      0.007562722  
    103600   7.5335346      0.0044877549   11.282189      0.0075969607 
    103700   7.5497798     -0.0099005233   11.29212       0.007532098  
    103800   7.5554631     -0.0086384185   11.30189       0.0075481278 
    103900   7.5532156      0.0049576524   11.312121      0.0076028679 
    104000   7.5670742     -0.006055029    11.321855      0.0075603715 
    104100   7.5714014     -0.0019450277   11.332443      0.0075526505 
    104200   7.5785097     -0.0026576703   11.342371      0.0075723472 
    104300   7.5845713     -0.0017213812   11.352382      0.0075814572 
    104400   7.5936285     -0.0054841387   11.362178      0.0075755761 
    104500   7.5999135     -0.0046934521   11.372377      0.0075806426 
    104600   7.6063365     -0.0043751078   11.382311      0.0075832335 
    104700   7.6130729     -0.0046163911   11.392154      0.0075893719 
    104800   7.6191559     -0.0037800548   11.402096      0.0076226302 
    104900   7.6258165     -0.00349434     11.412353      0.0076045843 
    105000   7.6331763     -0.0045449428   11.42232       0.0076157933 
    105100   7.6374642     -0.00087740129  11.432407      0.0076613184 
    105200   7.6459307     -0.0035954258   11.442363      0.0076396109 
[...]
    175900   12.372803     -0.0075194964   18.514567      0.012342623  
    176000   12.378964     -0.0066013738   18.524708      0.012349629  
    176100   12.382948     -0.0025699409   18.534703      0.012353599  
    176200   12.390647     -0.0040587126   18.544739      0.012359835  
    176300   12.398001     -0.0050662067   18.554742      0.012367157  
    176400   12.403237     -0.0028758317   18.564769      0.012372943  
    176500   12.392437      0.02352217     18.575         0.012537408  
    176600   12.41707      -0.0037007017   18.584653      0.012386141  
    176700   12.423523     -0.0033883373   18.594625      0.012392687  
    176800   12.432629     -0.007091145    18.604555      0.012399188  
    176900   12.431493      0.0044153378   18.614361      0.012459698  
    177000   12.447521     -0.0094337476   18.624505      0.012421976  
    177100   12.443096      0.006929324    18.634244      0.012477675  
    177200   12.45784      -0.0048005078   18.644587      0.012425114  
    177300   12.465942     -0.006788152    18.654727      0.012433965  
    177400   12.463237      0.0071208549   18.664587      0.012502011  
    177500   12.477092     -0.0037407231   18.674466      0.012482971  
    177600   12.483077     -0.0026373861   18.684529      0.012453037  
    177700   12.489699     -0.0023299709   18.69475       0.012460543  
    177800   12.496944     -0.0032797708   18.704646      0.012466466  
    177900   12.503859     -0.0037570772   18.714519      0.012471951  
    178000   12.509792     -0.0024718074   18.724687      0.012480181  
    178100   12.517227     -0.0037055105   18.734583      0.012492271  
    178200   12.519994      0.0018052233   18.744237      0.012575512  
    178300   12.530612     -0.0039033861   18.754423      0.012498665  
    178400   12.536085     -0.0018317493   18.764687      0.012507498  
    178500   12.546552     -0.0076629913   18.774525      0.012511617  
    178600   12.549989     -0.0026800264   18.784653      0.012520501  
    178700   12.555919     -0.0014628972   18.794747      0.012527982  
    178800   12.565743     -0.0063145206   18.804602      0.012536263  
    178900   12.555009      0.019999659    18.814848      0.012660314  
    179000   12.568071      0.009832139    18.824235      0.012646039  
    179100   12.585818     -0.0064948935   18.834475      0.012553068  
    179200   12.591471     -0.004894863    18.844537      0.012568094  
    179300   12.598962     -0.0060000326   18.854646      0.012567777  
    179400   12.605176     -0.0055359965   18.864412      0.01257056   
    179500   12.588923      0.028848269    18.874467      0.012739615  
    179600   12.617905     -0.004522366    18.884481      0.012586934  
    179700   12.621468      0.00025974875  18.894598      0.012639578  
    179800   12.631231     -0.0042990737   18.904654      0.012598722  
    179900   12.639184     -0.0061900475   18.914669      0.012607702  
    180000   12.645733     -0.0063255879   18.924336      0.012610948  
    180100   12.655913     -0.011340615    18.934562      0.012635853  
    180200   12.656591     -0.0026482606   18.944268      0.012658186  
    180300   12.668521     -0.010072262    18.954704      0.012637629  
    180400   12.664425      0.0056658687   18.964311      0.012710777  
    180500   12.681381     -0.0093918192   18.974636      0.012642761  
    180600   12.686728     -0.0073976243   18.984634      0.012660818  
    180700   12.663537      0.038030974    18.995345      0.012840328  
    180800   12.698766     -0.0054210886   19.004631      0.012664908  
    180900   12.706948     -0.0077780741   19.014522      0.012676597  
    181000   12.715772     -0.010883704    19.024627      0.012693417  
    181100   12.714937      0.0010078304   19.035268      0.012751664  
    181200   12.724628     -0.0024209743   19.046348      0.012702709  
    181300   12.731597     -0.0031207369   19.05608       0.012700784  
    181400   12.738968     -0.0039607409   19.066275      0.012713342  
    181500   12.745495     -0.0040472047   19.075959      0.012727337  
    181600   12.752677     -0.0049164929   19.085841      0.01274367   
    181700   12.758693     -0.0036892297   19.096074      0.012757723  
    181800   12.767461     -0.0070523464   19.105837      0.012777268  
    181900   12.77491      -0.0080268643   19.116014      0.01274733   
    182000   12.778613     -0.0033556374   19.126228      0.012747234  
    182100   12.785298     -0.0035899033   19.136001      0.012753013  
    182200   12.792668     -0.0047365545   19.145888      0.012765294  
    182300   12.777776      0.027520528    19.155852      0.012922645  
    182400   12.804461     -0.002337628    19.16594       0.012792046  
    182500   12.813726     -0.0061141753   19.176034      0.012788433  
    182600   12.817866     -0.0020603975   19.186284      0.012788755  
    182700   12.824736     -0.002671519    19.195959      0.012811014  
    182800   12.834532     -0.0074265807   19.205868      0.01280603   
    182900   12.838185     -0.0028078446   19.215955      0.012807338  
    183000   12.846118     -0.0042705743   19.226368      0.012816356  
    183100   12.852605     -0.0042902442   19.23606       0.01283695   
    183200   12.862084     -0.0086671374   19.245873      0.012837717  
    183300   12.867344     -0.0064601905   19.255954      0.012835002  
    183400   12.871177     -0.0024092997   19.265742      0.012925989  
    183500   12.881117     -0.0069554759   19.276076      0.012845315  
    183600   12.878095      0.0074475763   19.285956      0.012919002  
    183700   12.893651     -0.0057282668   19.296067      0.012860595  
    183800   12.901001     -0.0068646494   19.305934      0.012863704  
    183900   12.896237      0.010106244    19.315773      0.012983806  
    184000   12.913137     -0.004888965    19.326078      0.012880799  
    184100   12.921379     -0.0074845636   19.33582       0.012904913  
    184200   12.925781     -0.0038793386   19.346015      0.012893529  
    184300   12.935112     -0.0077799293   19.356083      0.012899009  
    184400   12.936577     -0.00010385908  19.365952      0.012956275  
    184500   12.947099     -0.0061278849   19.375679      0.012939942  
    184600   12.95164      -0.0025635848   19.386042      0.012945332  
    184700   12.962025     -0.0081444421   19.396007      0.012927234  
    184800   12.968202     -0.007605747    19.405793      0.012946511  
    184900   12.969395      0.00062351384  19.415809      0.013027631  
    185000   12.978871     -0.0035331609   19.425837      0.012980271  
    185100   12.986735     -0.0051395478   19.436003      0.012954411  
    185200   12.991646     -0.002630474    19.445863      0.013007802  
    185300   13.002907     -0.0095407334   19.455812      0.012965506  
    185400   13.007211     -0.0058652084   19.465929      0.012972677  
    185500   13.012551     -0.003781388    19.476007      0.012979597  
    185600   13.01759      -0.0014639046   19.485869      0.013016793  
    185700   13.01901       0.0063781889   19.495836      0.013076098  
    185800   13.032499     -0.0034972      19.506155      0.013000446  
    185900   13.039974     -0.0047904047   19.516051      0.013007643  
    186000   13.030443      0.019764657    19.526338      0.01315919   
    186100   13.052518     -0.0036011324   19.536018      0.01301967   
    186200   13.056021      0.0010660277   19.545929      0.013074638  
    186300   13.060477      0.0046822449   19.556216      0.013094511  
    186400   13.073191     -0.0043845818   19.566182      0.013039441  
    186500   13.079598     -0.0040785546   19.57608       0.013057798  
    186600   13.086557     -0.0044276427   19.586148      0.01305449   
    186700   13.095138     -0.0074593855   19.595963      0.013072821  
    186800   13.077333      0.029580393    19.606348      0.013220478  
    186900   13.10707      -0.0054167893   19.615867      0.013071395  
    187000   13.113712     -0.0051699358   19.626058      0.013084703  
    187100   13.115481      0.0018074783   19.635682      0.013151999  
    187200   13.108001      0.023559955    19.646237      0.013281737  
    187300   13.13468      -0.0064718309   19.656145      0.01310038   
    187400   13.142073     -0.0077655799   19.665918      0.013118256  
    187500   13.1471       -0.0052643461   19.675945      0.013116751  
    187600   13.156343     -0.0090063532   19.686039      0.013126396  
    187700   13.159141     -0.0031912381   19.696043      0.013126945  
    187800   13.167647     -0.0062123527   19.705756      0.013153181  
    187900   13.172753     -0.0035889749   19.716022      0.013139912  
    188000   13.180962     -0.0057822284   19.726118      0.013144951  
    188100   13.189038     -0.0078369228   19.736153      0.013152461  
    188200   13.192411     -0.002885       19.746155      0.013160576  
    188300   13.200995     -0.0058070688   19.756082      0.013166204  
    188400   13.190074      0.020456065    19.765997      0.013307852  
    188500   13.214498     -0.0060326555   19.77607       0.013179981  
    188600   13.220649     -0.0052371716   19.786075      0.013200276  
    188700   13.228276     -0.0070174183   19.795712      0.013195346  
    188800   13.232877     -0.0035975462   19.806019      0.013200038  
    188900   13.242291     -0.0077086609   19.816001      0.013208501  
    189000   13.247022     -0.0050289749   19.825763      0.013211211  
    189100   13.253714     -0.0047952857   19.836015      0.013221781  
    189200   13.2511        0.0092980386   19.846195      0.013300711  
    189300   13.264585     -0.00093614333  19.856148      0.01323622   
    189400   13.273292     -0.004131493    19.865987      0.013239347  
    189500   13.281564     -0.0066210627   19.87588       0.013262431  
    189600   13.249042      0.052580426    19.886397      0.013531687  
    189700   13.23132       0.092400433    19.899687      0.013648355  
    189800   13.299853     -0.003927327    19.905952      0.013269982  
    189900   13.307186     -0.0048315898   19.916025      0.013275453  
    190000   13.313159     -0.0037055712   19.926093      0.013286463  
    190100   13.30813       0.013827438    19.936099      0.01339188   
    190200   13.3256       -0.0023001429   19.946123      0.013295564  
    190300   13.329712      0.00060173914  19.95518       0.013381463  
    190400   13.339317     -0.0034960362   19.965462      0.013367244  
    190500   13.345318     -0.0020297086   19.975911      0.013314666  
    190600   13.355062     -0.0065712813   19.985956      0.013327694  
    190700   13.361421     -0.0058572596   19.99619       0.013328462  
    190800   13.36182       0.0033630254   20.006007      0.013415338  
    190900   13.376268     -0.0083759753   20.015897      0.013336483  
    191000   13.381833     -0.0068034376   20.0258        0.013352696  
    191100   13.38888      -0.0071195904   20.036033      0.013351322  
    191200   13.394711     -0.0059577932   20.045924      0.013374131  
    191300   13.398641     -0.001673627    20.056092      0.013386818  
    191400   13.407158     -0.0046601942   20.065855      0.013374499  
    191500   13.412939     -0.0030896337   20.076081      0.013380341  
    191600   13.420818     -0.0049996372   20.085965      0.013387672  
    191700   13.426028     -0.0026282857   20.096136      0.013394244  
    191800   13.43281      -0.0027856509   20.106131      0.013400974  
    191900   13.439456     -0.0027040929   20.116162      0.013408033  
    192000   13.447499     -0.0048445638   20.126062      0.013412598  
    192100   13.452322     -0.0019983274   20.136127      0.013421606  
    192200   13.456583      0.0012914825   20.145796      0.013474485  
    192300   13.462086      0.0032664783   20.156009      0.013479075  
    192400   13.473676     -0.0039643134   20.166128      0.013442511  
    192500   13.482214     -0.0071569827   20.175717      0.013452707  
    192600   13.487804     -0.0051383537   20.186104      0.013455295  
    192700   13.49717      -0.0094205357   20.195844      0.013463059  
    192800   13.498396     -0.0012791565   20.205819      0.013491138  
    192900   13.510029     -0.0086509202   20.215863      0.01347567   
    193000   13.51352      -0.0038692148   20.22587       0.013479296  
    193100   13.524727     -0.010744342    20.235772      0.013487808  
    193200   13.528258     -0.0060582715   20.245744      0.013490429  
    193300   13.533381     -0.0034723302   20.255999      0.013520505  
    193400   13.541573     -0.0058679881   20.265867      0.013504913  
    193500   13.550407     -0.0090922693   20.275868      0.013527307  
    193600   13.553819     -0.0040942595   20.285972      0.01351931   
    193700   13.561715     -0.0061686926   20.295718      0.013558823  
    193800   13.555783      0.012969009    20.305976      0.013624237  
    193900   13.57485      -0.0053893398   20.316162      0.013551579  
    194000   13.580493     -0.0038861605   20.326112      0.013552661  
    194100   13.587314     -0.0041907174   20.336019      0.013552629  
    194200   13.596199     -0.0077589138   20.345751      0.013574081  
    194300   13.604551     -0.010168762    20.355844      0.013564371  
    194400   13.609998     -0.0085459498   20.365621      0.01358732   
    194500   13.61573      -0.0067693187   20.375978      0.013580896  
    194600   13.622425     -0.0070228429   20.385747      0.013594796  
    194700   13.627656     -0.0047105718   20.39589       0.013598986  
    194800   13.63834      -0.010521821    20.406073      0.013603712  
    194900   13.641918     -0.0059317328   20.41602       0.013610931  
    195000   13.649695     -0.0074455056   20.426147      0.013610769  
    195100   13.653277     -0.0028141968   20.436142      0.013621203  
    195200   13.662325     -0.0065271701   20.445974      0.013636618  
    195300   13.668058     -0.004977073    20.456105      0.013641503  
    195400   13.673826     -0.0035414195   20.466177      0.01364506   
    195500   13.681087     -0.0044185674   20.476169      0.013647033  
    195600   13.690281     -0.0084046897   20.485946      0.013649658  
    195700   13.693288     -0.0027081567   20.496143      0.013680934  
    195800   13.701643     -0.0055309124   20.505829      0.013665784  
    195900   13.709334     -0.0069346405   20.515939      0.013689065  
    196000   13.713203     -0.0024872153   20.526178      0.013683438  
    196100   13.720682     -0.0037932396   20.536067      0.013686087  
    196200   13.727844     -0.0043181287   20.546265      0.013692717  
    196300   13.735554     -0.0058874759   20.556237      0.013701966  
    196400   13.740899     -0.0038308482   20.566296      0.013706749  
    196500   13.746836     -0.0026232974   20.57639       0.013714492  
    196600   13.755764     -0.0061892279   20.586189      0.013717599  
    196700   13.760604     -0.0032447185   20.596379      0.013727188  
    196800   13.768536     -0.0059092144   20.605589      0.013760838  
    196900   13.773129     -0.0020359103   20.616339      0.013741702  
    197000   13.783119     -0.0070542714   20.626276      0.013748007  
    197100   13.788999     -0.0057118249   20.63642       0.013756955  
    197200   13.795437     -0.0056341923   20.646135      0.013759349  
    197300   13.780998      0.02329954     20.653454      0.013892343  
    197400   13.80359       0.0020082605   20.665982      0.013813175  
    197500   13.803949      0.01153925     20.676051      0.013921021  
    197600   13.821905     -0.0051307601   20.686261      0.013785977  
    197700   13.824649      0.00089865558  20.696399      0.01382528   
    197800   13.833831     -0.0029076605   20.706338      0.013815016  
    197900   13.841576     -0.0046532936   20.716186      0.013818793  
    198000   13.846938     -0.0024121696   20.726455      0.013814865  
    198100   13.855686     -0.0058380141   20.736124      0.013817923  
    198200   13.860728     -0.0031096245   20.746401      0.013827333  
    198300   13.8645        0.0011953867   20.756352      0.013869411  
    198400   13.87595      -0.0059368015   20.766361      0.013840689  
    198500   13.882593     -0.0059889119   20.776252      0.013855297  
    198600   13.887901     -0.0037468316   20.786441      0.013856636  
    198700   13.894929     -0.0044617034   20.796246      0.013859892  
    198800   13.900291     -0.0024693633   20.806267      0.013867727  
    198900   13.906291     -0.0012040547   20.816514      0.013876128  
    199000   13.913748     -0.0023687052   20.826512      0.01388145   
    199100   13.907777      0.016487813    20.83643       0.014009223  
    199200   13.929389     -0.0062781285   20.846018      0.01390146   
    199300   13.935462     -0.0050066351   20.856381      0.013916604  
    199400   13.942491     -0.0055385984   20.866371      0.013907202  
    199500   13.947978     -0.0039873925   20.876136      0.013914782  
    199600   13.955542     -0.0051659305   20.88628       0.013928212  
    199700   13.961845     -0.004778253    20.896104      0.013925555  
    199800   13.963057      0.0033027789   20.905999      0.014010824  
    199900   13.975032     -0.0043770626   20.916246      0.013939069  
    200000   13.980764     -0.0027897636   20.926414      0.013947645  
    200100   13.987124     -0.0025806219   20.936144      0.013977216  
    200200   13.996157     -0.0061941213   20.946053      0.013959463  
    200300   13.991086      0.010674012    20.95533       0.01406595   
    200400   14.006681     -0.0016265815   20.966375      0.01397574   
    200500   14.016726     -0.0067395492   20.976299      0.013979669  
    200600   14.020307     -0.0022584892   20.986141      0.01401052   
    200700   14.028981     -0.0050640587   20.996321      0.013997168  
    200800   14.033471     -0.0018551163   21.006251      0.014001851  
    200900   14.043203     -0.0066895149   21.015986      0.01400696   
    201000   14.04918      -0.0053578831   21.026265      0.014012631  
    201100   14.052835     -0.00047617099  21.036617      0.014023804  
    201200   14.061909     -0.0043322828   21.046346      0.014027999  
    201300   14.067443     -0.0026035074   21.056358      0.014034366  
    201400   14.07542      -0.0046732542   21.066231      0.014046199  
    201500   14.080113     -0.0017199377   21.07621       0.014081089  
    201600   14.063041      0.031976284    21.084348      0.014251918  
    201700   14.079008      0.019675191    21.09595       0.01422097   
    201800   14.101486     -0.00366595     21.106259      0.014068672  
    201900   14.106569     -0.0015046584   21.116029      0.014120624  
    202000   14.11397      -0.0024516558   21.126162      0.014081058  
Loop time of 23.5895 on 1 procs for 200000 steps with 500 atoms

Performance: 3662647.759 tau/day, 8478.351 timesteps/s, 4.239 Matom-step/s
86.9% CPU use with 1 MPI tasks x 1 OpenMP threads

MPI task timing breakdown:
Section |  min time  |  avg time  |  max time  |%varavg| %total
---------------------------------------------------------------
Pair    | 0.38181    | 0.38181    | 0.38181    |   0.0 |  1.62
Neigh   | 10.249     | 10.249     | 10.249     |   0.0 | 43.45
Comm    | 0.66006    | 0.66006    | 0.66006    |   0.0 |  2.80
Output  | 4.9158     | 4.9158     | 4.9158     |   0.0 | 20.84
Modify  | 4.4199     | 4.4199     | 4.4199     |   0.0 | 18.74
Other   |            | 2.963      |            |       | 12.56

Nlocal:            500 ave         500 max         500 min
Histogram: 1 0 0 0 0 0 0 0 0 0
Nghost:             99 ave          99 max          99 min
Histogram: 1 0 0 0 0 0 0 0 0 0
Neighs:             24 ave          24 max          24 min
Histogram: 1 0 0 0 0 0 0 0 0 0

Total # of neighbors = 24
Ave neighs/atom = 0.048
Neighbor list builds = 56178
Dangerous builds = 0
Total wall time: 0:00:23
